# vtk DataFile Version 4.0
vtk output
ASCII
DATASET POLYDATA
POINTS 335 float
7.73667 5.53667 4.8 7.755 5.17 4.8 5.995 3.74 4.8 
7.04 6.27 4.6 7.535 6.05 4.6 5.83 3.575 4.6 
8.03 5.775 4.4 8.14 5.665 4.4 7.4525 8.0025 4.1 
7.59 7.865 4.12 7.59 7.535 4 6.71 6.545 4 
6.16 6.545 4 6.27 5.665 4 6.105 5.335 4 
7.788 7.92 3.64 7.095 7.59 3.8 7.70451 7.21897 3.40185 
7.37 6.27 3.8 7.04 9.845 3.6 7.27375 7.82375 3.375 
7.93833 7.77333 3.46667 5.39 4.18 3.6 7.755 8.085 3.4 
7.37 7.48 3.4 6.765 7.26 3.4 7.095 7.095 3.4 
7.315 7.04 3.4 7.095 6.93 3.4 5.665 6.215 3.4 
8.23593 8.32315 3.1 8.085 7.645 3.2 7.35625 7.645 3 
7.37 7.425 3 6.94833 7.38833 3 7.95667 8.43333 2.8 
8.03 7.535 2.8 7.3975 8.48833 2.33333 7.535 8.305 2.6 
7.26 7.315 2.6 6.93 8.195 2.4 5.775 5.39 2.4 
7.755 8.91 2.2 7.755 8.745 2 7.37 7.15 2 
7.31715 7.205 2.2 7.27601 7.26 2.4 7.51099 8.56729 2.19506 
7.58678 8.6196 2.10617 7.64484 8.64889 2.0642 7.7 8.69204 2.03704 
7.755 8.8 2.0963 7.755 8.855 2.16296 7.81 8.69 2.13333 
7.86486 8.63493 2.27407 7.91714 8.57857 2.42963 7.95366 8.51433 2.60741 
5.83 5.39 2.4 5.885 5.39 2.4 5.94 5.39011 2.4 
5.995 5.39204 2.4 6.05 5.40396 2.4 6.105 5.43104 2.39259 
6.16 5.44296 2.37037 6.215 5.44489 2.32593 6.27 5.445 2.27407 
6.325 5.445 2.22963 6.38 5.44489 2.2 6.435 5.44296 2.17037 
6.49 5.43114 2.12593 6.545 5.40601 2.08148 6.6 5.40601 2.05185 
6.655 5.43125 2.05185 6.71 5.445 2.05185 6.765 5.45875 2.04444 
6.82 5.4841 2.02222 6.875 5.48614 2.01481 6.93 5.47497 2.02963 
6.985 5.50408 2.07407 7.04 5.55307 2.13333 7.095 5.59399 2.2 
7.15 5.60989 2.26667 7.205 5.62396 2.32593 7.26 5.65318 2.37778 
7.315 5.67907 2.42963 7.36989 5.72204 2.5037 7.42296 5.77511 2.60741 
7.46604 5.83 2.72593 7.49386 5.885 2.84444 7.53479 5.94 2.95556 
7.57185 5.995 3.07407 7.57174 6.05 3.2 7.53274 6.105 3.33333 
7.47989 6.16 3.47407 7.425 6.215 3.62963 6.97114 8.25 2.4 
6.99896 8.305 2.4 7.04204 8.36 2.4 7.09511 8.41489 2.4 
7.15016 8.46778 2.39753 7.20822 8.50745 2.38765 7.28401 8.51218 2.36543 
6.985 8.15386 2.4 7.04 8.12603 2.40741 7.095 8.08296 2.43704 
7.14992 8.02981 2.525 7.20339 7.97339 2.70648 7.248 7.908 3.00185 
6.87704 8.14 2.4 6.83407 8.085 2.40741 6.80818 8.03 2.42963 
6.77907 7.975 2.47407 6.76704 7.92 2.51852 6.76511 7.865 2.54815 
6.765 7.81 2.54815 6.76511 7.755 2.54815 6.76704 7.7 2.56296 
6.77907 7.645 2.61481 6.80822 7.58993 2.6963 6.83479 7.53357 2.8 
6.88238 7.46933 2.9037 7.47205 8.3812 2.4716 7.31285 7.35614 2.7037 
7.35399 7.38386 2.83704 7.205 7.35399 2.72593 7.14993 7.36789 2.83704 
7.09357 7.37061 2.91852 7.02933 7.37534 2.97037 7.59 8.3209 2.6 
7.645 8.36 2.63704 7.7 8.39899 2.7037 7.75507 8.41289 2.76296 
7.81143 8.41561 2.79259 7.87567 8.42034 2.8 7.49805 8.25 2.57037 
7.49611 8.195 2.52593 7.52114 8.14 2.47407 7.53296 8.085 2.42963 
7.53489 8.03 2.41481 7.535 7.975 2.42963 7.53489 7.92 2.47407 
7.53272 7.86489 2.54074 7.5162 7.80785 2.64444 7.45784 7.73899 2.8 
8.0691 7.59 3 7.3382 7.74308 3.17315 8.02477 8.38132 2.83333 
8.08632 8.36217 2.89259 8.15393 8.35297 2.98519 6.88033 7.33419 3.13333 
6.82072 7.30186 3.26667 7.36946 7.48215 2.94074 7.366 7.55101 2.94074 
7.3932 7.4409 3.2 7.34282 7.5509 3.2 7.315 7.71987 3.19537 
8.14 7.7 3.36296 8.19489 7.755 3.4963 8.24796 7.81 3.58519 
8.29093 7.865 3.63704 8.31682 7.92 3.65185 8.34593 7.975 3.63704 
8.35796 8.03 3.59259 8.35979 8.085 3.52593 8.35785 8.14008 3.44074 
8.34378 8.19645 3.33704 8.30081 8.25884 3.22222 8.0194 7.7053 3.3358 
5.61204 6.19899 3.37037 5.56907 6.15785 3.32593 5.54318 6.10489 3.27407 
5.51396 6.05 3.22963 5.5 5.995 3.20741 5.48614 5.94 3.2 
5.45896 5.885 3.2 5.44693 5.83 3.2 5.44307 5.775 3.19259 
5.43093 5.72 3.17037 5.40192 5.665 3.12593 5.37797 5.61 3.07407 
5.34703 5.555 3.03704 5.32308 5.5 3.03704 5.29396 5.445 3.07407 
5.28 5.39 3.12593 5.26625 5.335 3.16296 5.24101 5.28 3.17037 
5.24101 5.225 3.14815 5.26625 5.17 3.11852 5.28 5.115 3.08148 
5.29386 5.06 3.05926 5.32104 5.005 3.05185 5.33296 4.95 3.08148 
5.33478 4.895 3.13333 5.33296 4.84 3.2 5.32104 4.785 3.27407 
5.29407 4.73 3.35556 5.28408 4.675 3.44444 5.29418 4.62 3.52593 
5.32308 4.565 3.59259 5.34692 4.51 3.64444 5.37593 4.455 3.67407 
5.38785 4.4 3.6963 5.38796 4.345 3.6963 5.37818 4.29 3.68889 
5.36486 4.235 3.65185 7.095 6.985 3.4 7.095 7.04 3.4 
7.33101 7.09285 3.42963 7.37215 7.13378 3.42222 7.42511 7.1457 3.37037 
7.48 7.13399 3.2963 7.535 7.09715 3.23704 7.58992 7.07212 3.22037 
7.64333 7.0994 3.2463 7.68687 7.15226 3.31481 7.70083 7.30103 3.50741 
7.68641 7.36796 3.61667 7.65684 7.42489 3.73889 7.63104 7.48 3.86667 
7.425 7.48011 3.57037 7.48 7.48215 3.72593 7.535 7.49601 3.86667 
7.86394 7.8544 3.54025 7.76454 8.0141 3.51556 7.17216 7.759 3.55 
7.1138 7.70054 3.68426 7.09728 7.64503 3.76204 7.86394 7.8312 3.56247 
7.36603 7.91603 3.73981 7.095 9.79 3.6963 7.15 9.735 3.76296 
7.20489 9.68 3.79259 7.25796 9.625 3.80741 7.30093 9.57 3.82963 
7.32682 9.515 3.87407 7.35604 9.46 3.92593 7.37 9.405 3.97778 
7.38386 9.35 4.02222 7.41104 9.295 4.07407 7.42296 9.24 4.11852 
7.42489 9.185 4.14074 7.42489 9.13 4.11852 7.42296 9.075 4.08148 
7.41114 9.02 4.06667 7.3859 8.965 4.11111 7.38407 8.91 4.2 
7.39911 8.855 4.28889 7.39396 8.8 4.34074 7.40104 8.745 4.34815 
7.39589 8.69 4.34074 7.41104 8.635 4.33333 7.41114 8.58 4.33333 
7.39782 8.525 4.34074 7.41308 8.47 4.36296 7.42307 8.415 4.4 
7.425 8.36 4.44444 7.42704 8.305 4.48148 7.43896 8.25 4.51111 
7.46598 8.19495 4.50741 7.47688 8.13893 4.44815 7.47189 8.077 4.3037 
7.31704 6.325 3.8 7.27396 6.38 3.8 7.24604 6.435 3.8 
7.20296 6.49 3.8 7.14989 6.54489 3.8 7.095 6.59796 3.79259 
7.04 6.64093 3.77037 6.985 6.66671 3.72593 6.93 6.69378 3.68148 
6.875 6.69185 3.66667 6.82 6.65274 3.71852 6.765 6.59989 3.83704 
7.41114 6.215 4 7.43896 6.16 4.2 7.48204 6.105 4.4 
7.69364 7.9041 3.88444 6.14604 5.39 3.97037 6.17192 5.445 3.96296 
6.20297 5.5 3.97778 6.22692 5.555 3.99259 6.25604 5.61 4 
6.215 6.50601 4 6.27 6.49215 4 6.325 6.49011 4 
6.38 6.49 4 6.435 6.48989 4 6.49 6.48807 4 
6.545 6.47818 4 6.6 6.46508 4 6.655 6.49419 4 
6.765 6.50386 4.17037 6.82 6.47604 4.31852 6.875 6.43296 4.43704 
6.93 6.37989 4.51852 6.985 6.325 4.57037 7.57614 7.59 4.02963 
7.54907 7.64511 4.07111 7.53919 7.70215 4.11111 7.55111 7.77101 4.12889 
7.50385 7.92795 4.09852 7.52705 7.95115 4.12074 8.085 5.72 4.4 
8.01399 5.82989 4.4 7.97285 5.88285 4.4 7.91989 5.92399 4.40741 
7.865 5.94 4.42963 7.81 5.9559 4.47407 7.755 5.995 4.52593 
7.7 6.03399 4.57037 7.645 6.04785 4.59259 7.59 6.04989 4.6 
7.975 5.72011 4.5037 7.91996 5.66701 4.59259 7.86428 5.62325 4.66667 
7.80466 5.59081 4.73333 5.885 3.57511 4.66667 5.93979 3.57715 4.72593 
5.99081 3.59111 4.77037 6.01992 3.63215 4.79259 6.00671 3.68511 4.8 
7.48419 5.995 4.6 7.45519 5.94 4.6 7.47033 5.885 4.60741 
7.49407 5.83 4.62963 7.53489 5.775 4.67407 7.5741 5.72 4.72593 
7.59007 5.66507 4.77037 7.60744 5.61143 4.79259 7.65782 5.56567 4.8 
7.74125 5.225 4.8 7.71601 5.28 4.8 7.71597 5.33507 4.8 
7.74043 5.39143 4.8 7.74762 5.45567 4.8 
LINES 47 433
4 44 45 46 39 
6 37 47 48 49 50 43 
4 43 51 52 42 
6 43 53 54 55 56 35 
40 41 57 58 59 60 61 62 63 64 65 66 67 68 69 70 71 72 73 74 75 76 77 78 79 80 81 82 83 84 85 86 87 88 89 90 91 92 93 94 18 
9 40 95 96 97 98 99 100 101 37 
8 40 102 103 104 105 106 107 20 
15 40 108 109 110 111 112 113 114 115 116 117 118 119 120 34 
3 37 121 38 
4 39 122 123 33 
6 39 124 125 126 127 34 
8 38 128 129 130 131 132 133 35 
12 38 134 135 136 137 138 139 140 141 142 143 32 
3 36 144 31 
3 32 145 20 
4 34 149 150 25 
4 33 151 152 32 
3 33 153 24 
3 32 154 24 
3 32 155 20 
3 31 167 21 
39 29 168 169 170 171 172 173 174 175 176 177 178 179 180 181 182 183 184 185 186 187 188 189 190 191 192 193 194 195 196 197 198 199 200 201 202 203 204 22 
4 28 205 206 26 
5 24 219 220 221 10 
3 21 222 15 
3 23 223 15 
5 20 224 225 226 16 
3 21 227 15 
3 20 228 8 
34 19 229 230 231 232 233 234 235 236 237 238 239 240 241 242 243 244 245 246 247 248 249 250 251 252 253 254 255 256 257 258 259 260 8 
14 18 261 262 263 264 265 266 267 268 269 270 271 272 11 
5 18 273 274 275 4 
3 15 276 9 
7 14 277 278 279 280 281 13 
11 12 282 283 284 285 286 287 288 289 290 11 
7 11 291 292 293 294 295 3 
6 10 296 297 298 299 9 
3 9 300 8 
3 9 301 8 
3 7 302 6 
11 6 303 304 305 306 307 308 309 310 311 4 
6 6 312 313 314 315 0 
7 5 316 317 318 319 320 2 
11 4 321 322 323 324 325 326 327 328 329 0 
7 1 330 331 332 333 334 0 
17 35 146 147 148 30 166 165 164 163 162 161 160 159 158 157 156 31 
15 27 207 208 209 210 211 212 213 214 17 215 216 217 218 10 

POINT_DATA 335
FIELD FieldData 7
vox_ch1 1 335 double
3287.75 2945.44 2646.73 3261.25 3287.47 2740.6 3399.7 2941.28 3616.49 
3816.69 3941.32 3216.28 2776.11 2942.56 3150.81 3917.04 3426.04 3860.78 
3393.99 3288.27 4058.77 4017.68 3011.14 3441.19 3897.99 3254.35 3180.1 
3121.3 3025.26 2790.46 3161.65 3731.77 4030.2 4124.47 3613.26 3229.22 
3371.26 3768.28 4201.43 4004.05 3167.63 2983.2 3051.9 3530.05 2975.4 
3290.44 3773.11 3766.01 3693.36 3632.73 3529.53 3258.86 3233.43 3579.09 
3681.95 3613.84 3382.77 2983.2 3047.3 3084.02 3084.02 3182.15 3221.2 
3221.2 3213.06 3187.59 3191.19 3159.94 3172.73 3153.01 3073.6 3073.6 
3014.23 2995.46 2995.46 3043.47 3043.47 3047.52 3129.22 3142.2 3183.8 
3252.25 3233.58 3313.04 3333.7 3279.04 3347.36 3471.43 3551.51 3542.78 
3639.16 3675.63 3649.98 3582.9 3659.23 3210.25 3162.53 3230.44 3221.01 
3286.54 3414.83 3583.78 3272.73 3262.1 3268.19 3368.06 3574.22 3823.95 
3167.63 3147.88 3123.65 3140.09 3125.68 3204.69 3166.44 3279.84 3314.02 
3255.31 3140.7 3310.16 3498.78 4080.94 3978.74 4127.17 3703.75 3646.54 
3711.9 3684.01 4118.88 4118.88 3824.83 3493.33 3329.26 3267.3 4210.51 
4182.89 4162.48 4071.63 3834.47 3821.32 3821.32 3826.38 3923.01 4127.06 
3689.22 4172.32 3213.91 3128.68 3186.99 3544.37 3540.69 4077.69 4046.74 
4071.33 3951.53 4206.84 3779.89 3827.43 3777.31 3630.02 3423.52 3423.52 
3391.9 3202.7 3239.68 3224.4 3183.86 3980.37 2833.32 2896.79 2918.02 
2906.7 2929.48 2929.48 2978.43 3081.19 3029.46 3108.62 3135.63 3074.3 
3203.14 3155.46 3155.46 3238.79 3124.36 3184.42 3227.41 3224.93 3221.53 
3185.95 3185.95 3121.1 3083.6 3131.88 3141.77 3170.16 3165.11 3114.15 
3075.72 3033.75 3044.77 2990.85 3052.64 3045.93 3072.16 3129.88 3129.88 
3221.81 3412.79 3475.41 3524.41 3514.14 3362.81 3546.33 3734.52 3954.11 
3964.69 3991.74 4070.43 4061.84 4156.69 3988.48 4147.62 3815.8 3813.37 
3682.04 3674.69 4147.62 3765.7 3314.6 3283.32 3283.32 3255.75 3297.2 
3286.79 3285.51 3288.65 3343.33 3315.1 3314.84 3287.02 3306.68 3302.35 
3287.11 3303.32 3338.58 3337.72 3277.06 3189.4 3226.02 3226.02 3239.79 
3284.68 3247.37 3294.7 3404.41 3361.09 3290.19 3336.77 3384.54 3479.14 
3400.49 3289.31 3266.67 3237.37 3170.38 3186.17 3171.68 3116.11 3132.12 
3088.32 3216.4 3228.85 3423.7 3494.86 3368.99 3939.6 3150.81 3190.77 
3190.77 3187.21 2942.56 2862.47 2862.47 2883.35 2916.51 2916.51 2940.65 
3012.31 3012.31 3226.07 3265.59 3296.67 3268.52 3307.84 3343.2 3899.64 
3847.31 3811.68 3720.21 3691.62 3691.62 3196.4 3399.7 3352.28 3312.12 
3272.36 3237.89 3183.68 3204 3288.88 3288.88 3328.26 3239.43 3253.49 
3281.35 2854.6 2858.91 2919.9 2907.33 2794.35 3362.48 3309.27 3241.93 
3185.86 3185.86 3199.84 3282.75 3267.25 3281.67 2885.81 3033.06 3115.11 
3174.93 3254.36 
vox_ch2 1 335 double
2743.28 2540.81 2426.63 2599.23 2749.19 2473.72 2747.84 2423.58 2786.16 
3043.15 3101.58 2706.19 2456.35 2520.64 2696.46 2866.8 2859.04 2920.02 
2929.46 2633.17 3071.59 2966.11 2545.96 2727.51 3028.1 2727.91 2569.51 
2589.51 2510.85 2444.93 2718.84 2746.57 3087.48 3212.65 2935.73 2825.41 
2561.57 2937.28 3077.67 3148.17 2799.2 2592.9 2618.67 2789.48 2529.85 
2625.44 2897.77 2898.9 2930.96 2938.38 2908.69 2714.21 2733.14 2911.77 
2852.9 2797.37 2781.12 2592.9 2648.14 2704.83 2704.83 2775.06 2796.93 
2796.93 2798.14 2805 2816.28 2782.25 2802.56 2764.69 2687.12 2687.12 
2634.26 2616.86 2616.86 2644.99 2644.99 2664.07 2691.33 2683.6 2718.44 
2756.48 2783.05 2766.72 2853.52 2914.54 3011.05 3054.2 3021.01 2977.93 
2900.25 2892.54 2907.74 2967.14 2908.09 2757.27 2632.3 2669.33 2675.59 
2728.79 2790.7 2843.58 2814.42 2844.6 2845.21 2875.9 3021.74 3075.31 
2799.2 2781.14 2738.89 2728.94 2720.16 2695.64 2680.98 2678.35 2679.73 
2683.58 2706.09 2770.22 2875.96 3054.32 3196.84 3238.23 3088.43 3001.57 
2958.02 2955.42 2984.46 2984.46 2921.3 2888.56 2861.54 2848.68 3036.83 
3062.2 3075.36 3045.31 2960.09 2933.07 2933.07 2885.31 2902.17 2972.43 
2720.67 3086 2817.02 2715.17 2752.79 2906.78 2814.98 3193.56 3123.43 
3055.32 3066.56 3092.7 2771.04 2852.49 2750.78 2663.93 2628.04 2628.04 
2661.67 2694.28 2705.95 2698.32 2712.81 2961.53 2433.23 2451.07 2467.49 
2468.85 2465.31 2465.31 2461.16 2490.74 2523.7 2569.41 2570.1 2616.86 
2639.59 2662.49 2662.49 2633.47 2647.16 2641.7 2658.21 2659.64 2624.6 
2639.37 2639.37 2640.57 2630.25 2605.21 2573.12 2570.11 2563.43 2543.91 
2534.6 2509.64 2580.4 2584.74 2585.43 2576.2 2578.53 2555.14 2555.14 
2681.27 2783.07 2797.41 2851.32 2846.38 2794.21 2876.16 2941.83 2951.96 
3040.54 3043.1 3132.1 3116.09 3190.52 3179.46 2948 2823.54 3067.59 
2967.94 2917.07 2948 2977.68 2728.37 2686.36 2686.36 2669.88 2682.69 
2637.3 2674.85 2706.81 2646.3 2640.89 2664.95 2645.07 2650.72 2586.09 
2593.19 2563.58 2553.85 2587.53 2590 2657.78 2694.54 2694.54 2744.21 
2757.91 2749.33 2744.46 2716.65 2716.35 2714.4 2717.09 2721.07 2731.33 
2895.49 2730.96 2728.33 2658.25 2601.31 2617.41 2626.54 2593.31 2621.14 
2628.26 2644.78 2667.11 2862.96 2859.15 2761.22 3050.77 2696.46 2719.21 
2719.21 2662.35 2520.64 2495.09 2495.09 2505.64 2550.35 2550.35 2595.77 
2666.49 2666.49 2734.56 2700.78 2631.96 2645.35 2634.78 2610.01 3112.38 
3081.67 3071.16 3056.14 2859.53 2859.53 2553.09 2747.84 2759.42 2718.69 
2647.43 2629.73 2606.96 2591.86 2651.69 2651.69 2760.21 2708.96 2703.78 
2718.69 2516.91 2537.35 2546.91 2525.77 2479.47 2748.83 2773.89 2724.62 
2645.42 2645.42 2645.1 2667.48 2684.94 2732.91 2573.78 2667.59 2706.27 
2731.81 2750.33 
ch1_bckgrnd 1 335 double
987.753 645.444 346.728 961.247 987.469 440.605 1099.7 641.284 1316.49 
1516.69 1641.32 916.284 476.111 642.556 850.815 1617.04 1126.04 1560.78 
1093.99 988.272 1758.77 1717.68 711.136 1141.19 1597.99 954.346 880.099 
821.296 725.259 490.457 861.654 1431.77 1730.2 1824.47 1313.26 929.222 
1071.26 1468.28 1901.43 1704.05 867.63 683.198 751.901 1230.05 675.395 
990.444 1473.11 1466.01 1393.36 1332.73 1229.53 958.864 933.432 1279.09 
1381.95 1313.84 1082.77 683.198 747.296 784.025 784.025 882.148 921.198 
921.198 913.062 887.593 891.185 859.938 872.728 853.012 773.605 773.605 
714.235 695.457 695.457 743.469 743.469 747.519 829.222 842.198 883.802 
952.247 933.58 1013.04 1033.7 979.037 1047.36 1171.43 1251.51 1242.78 
1339.16 1375.63 1349.98 1282.9 1359.23 910.247 862.531 930.444 921.012 
986.543 1114.83 1283.78 972.728 962.099 968.185 1068.06 1274.22 1523.95 
867.63 847.877 823.654 840.086 825.679 904.691 866.444 979.84 1014.02 
955.309 840.704 1010.16 1198.78 1780.94 1678.74 1827.17 1403.75 1346.54 
1411.9 1384.01 1818.88 1818.88 1524.83 1193.33 1029.26 967.296 1910.51 
1882.89 1862.48 1771.63 1534.47 1521.32 1521.32 1526.38 1623.01 1827.06 
1389.22 1872.32 913.914 828.679 886.988 1244.37 1240.69 1777.69 1746.74 
1771.33 1651.53 1906.84 1479.89 1527.43 1477.31 1330.02 1123.52 1123.52 
1091.9 902.704 939.679 924.395 883.864 1680.37 533.321 596.79 618.025 
606.704 629.481 629.481 678.432 781.185 729.457 808.617 835.63 774.296 
903.136 855.457 855.457 938.79 824.358 884.42 927.407 924.926 921.531 
885.951 885.951 821.099 783.605 831.877 841.765 870.16 865.111 814.148 
775.716 733.753 744.765 690.852 752.642 745.926 772.16 829.877 829.877 
921.815 1112.79 1175.41 1224.41 1214.14 1062.81 1246.33 1434.52 1654.11 
1664.69 1691.74 1770.43 1761.84 1856.69 1688.48 1847.62 1515.8 1513.37 
1382.04 1374.69 1847.62 1465.7 1014.6 983.321 983.321 955.753 997.198 
986.79 985.506 988.654 1043.33 1015.1 1014.84 987.025 1006.68 1002.35 
987.111 1003.32 1038.58 1037.72 977.062 889.395 926.025 926.025 939.79 
984.679 947.37 994.704 1104.41 1061.09 990.185 1036.77 1084.54 1179.14 
1100.49 989.309 966.667 937.37 870.383 886.173 871.679 816.111 832.123 
788.321 916.395 928.852 1123.7 1194.86 1068.99 1639.6 850.815 890.765 
890.765 887.21 642.556 562.469 562.469 583.346 616.506 616.506 640.654 
712.309 712.309 926.074 965.593 996.667 968.519 1007.84 1043.2 1599.64 
1547.31 1511.68 1420.21 1391.62 1391.62 896.395 1099.7 1052.28 1012.12 
972.358 937.889 883.679 904 988.877 988.877 1028.26 939.432 953.494 
981.346 554.605 558.914 619.901 607.333 494.346 1062.48 1009.27 941.926 
885.864 885.864 899.84 982.753 967.247 981.667 585.815 733.062 815.111 
874.926 954.358 
ch2_bckgrnd 1 335 double
540.284 337.815 223.63 396.235 546.185 270.716 544.84 220.58 583.16 
840.148 898.58 503.185 253.346 317.642 493.457 663.802 656.037 717.025 
726.457 430.173 868.593 763.111 342.963 524.506 825.099 524.914 366.506 
386.506 307.852 241.926 515.84 543.568 884.481 1009.65 732.728 622.407 
358.568 734.284 874.667 945.173 596.198 389.901 415.667 586.481 326.852 
422.444 694.765 695.901 727.963 735.383 705.691 511.21 530.136 708.765 
649.901 594.37 578.123 389.901 445.136 501.827 501.827 572.062 593.926 
593.926 595.136 602 613.284 579.247 599.556 561.691 484.123 484.123 
431.259 413.864 413.864 441.988 441.988 461.074 488.333 480.605 515.444 
553.481 580.049 563.716 650.519 711.543 808.049 851.198 818.012 774.926 
697.247 689.543 704.741 764.136 705.086 554.272 429.296 466.333 472.593 
525.79 587.704 640.58 611.42 641.605 642.21 672.901 818.741 872.309 
596.198 578.136 535.889 525.938 517.16 492.642 477.975 475.346 476.728 
480.58 503.086 567.222 672.963 851.321 993.84 1035.23 885.432 798.568 
755.025 752.42 781.457 781.457 718.296 685.556 658.543 645.679 833.827 
859.198 872.358 842.309 757.086 730.074 730.074 682.309 699.173 769.432 
517.667 883 614.025 512.173 549.79 703.778 611.975 990.556 920.432 
852.321 863.556 889.704 568.037 649.494 547.778 460.926 425.037 425.037 
458.667 491.284 502.951 495.321 509.815 758.531 230.235 248.074 264.494 
265.852 262.309 262.309 258.16 287.741 320.704 366.407 367.099 413.864 
436.593 459.494 459.494 430.469 444.16 438.704 455.21 456.642 421.605 
436.37 436.37 437.568 427.247 402.21 370.123 367.111 360.432 340.914 
331.605 306.642 377.395 381.741 382.432 373.198 375.531 352.136 352.136 
478.272 580.074 594.407 648.321 643.383 591.21 673.16 738.827 748.963 
837.543 840.099 929.099 913.086 987.519 976.457 745 620.543 864.593 
764.938 714.074 745 774.679 525.37 483.358 483.358 466.877 479.691 
434.296 471.852 503.815 443.296 437.889 461.951 442.074 447.716 383.086 
390.185 360.58 350.852 384.531 387 454.778 491.543 491.543 541.21 
554.914 546.333 541.457 513.654 513.346 511.395 514.086 518.074 528.333 
692.494 527.963 525.333 455.247 398.309 414.407 423.543 390.309 418.136 
425.259 441.778 464.111 659.963 656.148 558.222 847.765 493.457 516.21 
516.21 459.346 317.642 292.086 292.086 302.642 347.346 347.346 392.765 
463.494 463.494 531.556 497.778 428.963 442.346 431.778 407.012 909.383 
878.667 868.16 853.136 656.531 656.531 350.086 544.84 556.42 515.691 
444.432 426.728 403.963 388.864 448.691 448.691 557.21 505.963 500.778 
515.691 313.914 334.346 343.914 322.765 276.469 545.827 570.889 521.617 
442.42 442.42 442.099 464.481 481.938 529.914 370.778 464.593 503.272 
528.815 547.333 
normalized_dy 1 335 double
0.314556 0.363292 0.150346 0.667947 0.30257 0.195925 0.426997 0.952499 0.568364 
0.300991 0.313586 0.310273 0.344757 0.429653 0.253059 0.673899 0.248466 0.52061 
0.124016 0.591934 0.430808 0.564447 0.459576 0.520014 0.378709 0.308578 0.653383 
0.489975 0.626513 0.43226 0.221252 0.790954 0.390207 0.30203 0.293317 0.116346 
1 0.41589 0.518926 0.29959 0.0940709 0.269636 0.303141 0.473666 0.455354 
0.619823 0.487241 0.479165 0.365305 0.305144 0.263768 0.342618 0.274667 0.300637 
0.490848 0.540552 0.340974 0.269636 0.226226 0.15737 0.15737 0.145375 0.150684 
0.150684 0.140738 0.105383 0.0928082 0.111398 0.0942799 0.13154 0.178423 0.178423 
0.212838 0.227168 0.227168 0.228176 0.228176 0.192201 0.237613 0.269718 0.247412 
0.250857 0.185242 0.296145 0.173159 0.0471659 0 0.0473325 0.138213 0.181845 
0.369201 0.413155 0.366199 0.226277 0.373408 0.204608 0.421543 0.413302 0.385879 
0.34299 0.355177 0.418535 0.174275 0.12023 0.124998 0.172097 0.153811 0.266562 
0.0940709 0.10075 0.142382 0.178045 0.177603 0.319402 0.305409 0.452372 0.491232 
0.40892 0.221666 0.286579 0.286847 0.470493 0.23234 0.277176 0.170996 0.230596 
0.339266 0.32118 0.609767 0.609767 0.488742 0.262807 0.157721 0.119395 0.588308 
0.529306 0.49593 0.477192 0.431968 0.465656 0.465656 0.556286 0.606093 0.637562 
0.820283 0.487306 0.113656 0.190258 0.187511 0.279035 0.432292 0.294709 0.355662 
0.462379 0.364375 0.500798 0.773959 0.624063 0.82814 0.939664 0.796469 0.796469 
0.641132 0.320011 0.338276 0.337047 0.258678 0.543404 0.603192 0.655968 0.615139 
0.582906 0.652469 0.652469 0.787367 0.83877 0.578436 0.538428 0.579474 0.339791 
0.456676 0.334377 0.334377 0.523041 0.33098 0.425569 0.438182 0.431192 0.525947 
0.434016 0.434016 0.343108 0.318025 0.456478 0.578277 0.635039 0.652724 0.645589 
0.616703 0.648385 0.400415 0.303636 0.397224 0.415376 0.449335 0.627 0.627 
0.37319 0.367852 0.402784 0.350248 0.349379 0.296514 0.328304 0.381602 0.539407 
0.408781 0.424242 0.360272 0.374464 0.345268 0.256015 0.699913 0.677849 0.268545 
0.301856 0.37186 0.699913 0.352277 0.375455 0.436429 0.436429 0.443978 0.462725 
0.577022 0.468496 0.393852 0.625159 0.604221 0.532503 0.553701 0.563021 0.780599 
0.729373 0.878751 0.983779 0.82917 0.726331 0.38991 0.347487 0.347487 0.260313 
0.282785 0.258888 0.319804 0.504859 0.455731 0.378425 0.426001 0.471346 0.553163 
0.173235 0.341521 0.321586 0.451022 0.525609 0.497948 0.450447 0.469882 0.410254 
0.32965 0.460066 0.416921 0.240339 0.310309 0.365858 0.377118 0.253059 0.253884 
0.253884 0.3756 0.429653 0.372189 0.372189 0.373263 0.283042 0.283042 0.198044 
0.142285 0.142285 0.263703 0.380532 0.607335 0.528157 0.613679 0.749006 0.273662 
0.274804 0.26314 0.217883 0.486859 0.486859 0.74749 0.426997 0.351777 0.394039 
0.527187 0.533095 0.526985 0.608096 0.536674 0.536674 0.324701 0.331411 0.359378 
0.358755 0.278216 0.222004 0.29935 0.346153 0.290823 0.384521 0.278896 0.301294 
0.417488 0.417488 0.437037 0.484585 0.420254 0.328918 0.167789 0.166546 0.191238 
0.211858 0.264563 
unscaled_dy 1 335 double
403.267 421.451 342 535.118 398.795 359.006 445.219 641.284 497.963 
398.206 402.906 401.669 414.535 446.21 380.323 537.338 378.609 480.146 
332.177 506.757 446.641 496.502 457.374 479.924 427.203 401.037 529.684 
468.716 519.659 447.183 368.456 581.011 431.493 398.594 395.343 329.315 
659.007 441.075 479.518 397.683 321.004 386.508 399.009 462.631 455.799 
517.163 467.696 464.683 422.202 399.756 384.318 413.737 388.385 398.074 
469.042 487.587 413.124 386.508 370.311 344.621 344.621 340.146 342.127 
342.127 338.416 325.225 320.533 327.469 321.082 334.984 352.476 352.476 
365.316 370.663 370.663 371.039 371.039 357.617 374.56 386.538 378.216 
379.501 355.02 396.398 350.512 303.504 285.906 303.566 337.474 353.753 
423.655 440.055 422.535 370.33 425.225 362.246 443.184 440.109 429.878 
413.876 418.423 442.062 350.929 330.764 332.543 350.116 343.293 385.361 
321.004 323.496 339.029 352.335 352.17 405.075 399.854 454.686 469.185 
438.475 368.61 392.829 392.929 461.447 372.592 389.321 349.705 371.942 
412.487 405.739 513.411 513.411 468.256 383.96 344.752 330.453 505.404 
483.391 470.938 463.947 447.074 459.643 459.643 493.457 512.04 523.781 
591.954 467.72 328.311 356.892 355.867 390.014 447.195 395.862 418.604 
458.42 421.855 472.754 574.671 518.744 594.886 636.495 583.069 583.069 
525.113 405.302 412.117 411.659 382.419 488.651 510.957 530.648 515.415 
503.389 529.343 529.343 579.673 598.852 501.721 486.794 502.108 412.682 
456.292 410.662 410.662 481.053 409.395 444.686 449.392 446.784 482.137 
447.838 447.838 413.92 404.562 456.218 501.662 522.84 529.438 526.776 
515.998 527.819 435.301 399.193 434.111 440.883 453.554 519.84 519.84 
425.144 423.152 436.185 416.584 416.26 396.536 408.397 428.282 487.159 
438.423 444.191 420.324 425.619 414.726 381.426 547.044 538.812 386.1 
398.529 424.647 547.044 417.341 425.989 448.738 448.738 451.555 458.549 
501.193 460.702 432.853 519.153 511.341 484.583 492.492 495.969 577.148 
558.036 613.768 652.954 595.27 556.901 431.382 415.554 415.554 383.029 
391.414 382.498 405.225 474.269 455.94 427.097 444.847 461.766 492.292 
350.541 413.328 405.89 454.183 482.011 471.691 453.968 461.22 438.972 
408.899 457.557 441.46 375.577 401.683 422.408 426.609 380.323 380.631 
380.631 426.043 446.21 424.77 424.77 425.171 391.509 391.509 359.797 
338.993 338.993 384.294 427.883 512.503 482.962 514.87 565.361 388.01 
388.436 384.084 367.199 467.553 467.553 564.795 445.219 417.155 432.923 
482.6 484.804 482.525 512.787 486.14 486.14 407.053 409.556 419.99 
419.758 389.709 368.736 397.594 415.056 394.413 429.371 389.963 398.319 
441.671 441.671 448.965 466.705 442.703 408.626 348.508 348.045 357.257 
364.951 384.615 
width_eqv 1 335 double
2.44938 1.53148 1.01382 1.79633 2.47613 1.22729 2.47003 1 2.64376 
3.80881 4.07371 2.28119 1.14854 1.44003 2.23709 3.00935 2.97414 3.25063 
3.29339 1.95019 3.93776 3.45956 1.55482 2.37785 3.74058 2.37969 1.66155 
1.75222 1.39565 1.09677 2.33856 2.46426 4.00979 4.57727 3.32182 2.82168 
1.62557 3.32887 3.9653 4.28494 2.70286 1.76762 1.88442 2.65881 1.48178 
1.91515 3.14972 3.15487 3.30022 3.33386 3.19925 2.31757 2.40337 3.21319 
2.94633 2.69458 2.62092 1.76762 2.01802 2.27503 2.27503 2.59344 2.69256 
2.69256 2.69805 2.72917 2.78032 2.62601 2.71808 2.54643 2.19477 2.19477 
1.95511 1.87625 1.87625 2.00375 2.00375 2.09028 2.21386 2.17882 2.33677 
2.50921 2.62965 2.55561 2.94912 3.22578 3.66329 3.8589 3.70846 3.51312 
3.16097 3.12604 3.19494 3.46421 3.19651 2.51279 1.94621 2.11412 2.1425 
2.38367 2.66435 2.90407 2.77187 2.90871 2.91146 3.0506 3.71176 3.95461 
2.70286 2.62098 2.42945 2.38434 2.34455 2.23339 2.1669 2.15498 2.16125 
2.17871 2.28074 2.5715 3.05088 3.85946 4.50557 4.69323 4.0141 3.62031 
3.4229 3.41109 3.54273 3.54273 3.25639 3.10796 2.9855 2.92718 3.78015 
3.89517 3.95483 3.8186 3.43225 3.30979 3.30979 3.09324 3.1697 3.48822 
2.34684 4.00308 2.78368 2.32193 2.49247 3.19057 2.77439 4.49068 4.17278 
3.864 3.91493 4.03347 2.57519 2.94448 2.48335 2.08961 1.9269 1.9269 
2.07936 2.22723 2.28013 2.24554 2.31124 3.4388 1.04377 1.12464 1.19908 
1.20524 1.18918 1.18918 1.17037 1.30447 1.45391 1.66111 1.66424 1.87625 
1.97929 2.08311 2.08311 1.95153 2.0136 1.98886 2.06369 2.07019 1.91134 
1.97828 1.97828 1.98371 1.93692 1.82342 1.67795 1.6643 1.63402 1.54553 
1.50333 1.39016 1.71092 1.73062 1.73375 1.69189 1.70247 1.59641 1.59641 
2.16824 2.62976 2.69474 2.93916 2.91677 2.68025 3.05177 3.34947 3.39542 
3.797 3.80859 4.21207 4.13948 4.47691 4.42676 3.37746 2.81323 3.91963 
3.46785 3.23725 3.37746 3.51201 2.38177 2.1913 2.1913 2.11658 2.17468 
1.96888 2.13914 2.28404 2.00968 1.98517 2.09425 2.00414 2.02972 1.73672 
1.7689 1.63469 1.59059 1.74327 1.75446 2.06173 2.22841 2.22841 2.45357 
2.5157 2.4768 2.45469 2.32865 2.32725 2.31841 2.33061 2.34869 2.3952 
3.13942 2.39352 2.3816 2.06386 1.80573 1.87871 1.92013 1.76946 1.89562 
1.92791 2.0028 2.10405 2.99194 2.97465 2.5307 3.84334 2.23709 2.34024 
2.34024 2.08244 1.44003 1.32417 1.32417 1.37203 1.57469 1.57469 1.7806 
2.10125 2.10125 2.40981 2.25667 1.9447 2.00537 1.95746 1.84519 4.12268 
3.98343 3.9358 3.86769 2.97638 2.97638 1.58712 2.47003 2.52253 2.33789 
2.01483 1.93457 1.83137 1.76291 2.03414 2.03414 2.52611 2.29378 2.27027 
2.33789 1.42313 1.51576 1.55913 1.46326 1.25337 2.47451 2.58812 2.36475 
2.00571 2.00571 2.00425 2.10573 2.18487 2.40236 1.68092 2.10623 2.28158 
2.39738 2.48133 
