# vtk DataFile Version 4.0
vtk output
ASCII
DATASET POLYDATA
POINTS 335 float
7.73667 5.53667 4.8 7.755 5.17 4.8 5.995 3.74 4.8 
7.04 6.27 4.6 7.535 6.05 4.6 5.83 3.575 4.6 
8.03 5.775 4.4 8.14 5.665 4.4 7.4525 8.0025 4.1 
7.59 7.865 4.12 7.59 7.535 4 6.71 6.545 4 
6.16 6.545 4 6.27 5.665 4 6.105 5.335 4 
7.788 7.92 3.64 7.095 7.59 3.8 7.70451 7.21897 3.40185 
7.37 6.27 3.8 7.04 9.845 3.6 7.27375 7.82375 3.375 
7.93833 7.77333 3.46667 5.39 4.18 3.6 7.755 8.085 3.4 
7.37 7.48 3.4 6.765 7.26 3.4 7.095 7.095 3.4 
7.315 7.04 3.4 7.095 6.93 3.4 5.665 6.215 3.4 
8.23593 8.32315 3.1 8.085 7.645 3.2 7.35625 7.645 3 
7.37 7.425 3 6.94833 7.38833 3 7.95667 8.43333 2.8 
8.03 7.535 2.8 7.3975 8.48833 2.33333 7.535 8.305 2.6 
7.26 7.315 2.6 6.93 8.195 2.4 5.775 5.39 2.4 
7.755 8.91 2.2 7.755 8.745 2 7.37 7.15 2 
7.31715 7.205 2.2 7.27601 7.26 2.4 7.51099 8.56729 2.19506 
7.58678 8.6196 2.10617 7.64484 8.64889 2.0642 7.7 8.69204 2.03704 
7.755 8.8 2.0963 7.755 8.855 2.16296 7.81 8.69 2.13333 
7.86486 8.63493 2.27407 7.91714 8.57857 2.42963 7.95366 8.51433 2.60741 
5.83 5.39 2.4 5.885 5.39 2.4 5.94 5.39011 2.4 
5.995 5.39204 2.4 6.05 5.40396 2.4 6.105 5.43104 2.39259 
6.16 5.44296 2.37037 6.215 5.44489 2.32593 6.27 5.445 2.27407 
6.325 5.445 2.22963 6.38 5.44489 2.2 6.435 5.44296 2.17037 
6.49 5.43114 2.12593 6.545 5.40601 2.08148 6.6 5.40601 2.05185 
6.655 5.43125 2.05185 6.71 5.445 2.05185 6.765 5.45875 2.04444 
6.82 5.4841 2.02222 6.875 5.48614 2.01481 6.93 5.47497 2.02963 
6.985 5.50408 2.07407 7.04 5.55307 2.13333 7.095 5.59399 2.2 
7.15 5.60989 2.26667 7.205 5.62396 2.32593 7.26 5.65318 2.37778 
7.315 5.67907 2.42963 7.36989 5.72204 2.5037 7.42296 5.77511 2.60741 
7.46604 5.83 2.72593 7.49386 5.885 2.84444 7.53479 5.94 2.95556 
7.57185 5.995 3.07407 7.57174 6.05 3.2 7.53274 6.105 3.33333 
7.47989 6.16 3.47407 7.425 6.215 3.62963 6.97114 8.25 2.4 
6.99896 8.305 2.4 7.04204 8.36 2.4 7.09511 8.41489 2.4 
7.15016 8.46778 2.39753 7.20822 8.50745 2.38765 7.28401 8.51218 2.36543 
6.985 8.15386 2.4 7.04 8.12603 2.40741 7.095 8.08296 2.43704 
7.14992 8.02981 2.525 7.20339 7.97339 2.70648 7.248 7.908 3.00185 
6.87704 8.14 2.4 6.83407 8.085 2.40741 6.80818 8.03 2.42963 
6.77907 7.975 2.47407 6.76704 7.92 2.51852 6.76511 7.865 2.54815 
6.765 7.81 2.54815 6.76511 7.755 2.54815 6.76704 7.7 2.56296 
6.77907 7.645 2.61481 6.80822 7.58993 2.6963 6.83479 7.53357 2.8 
6.88238 7.46933 2.9037 7.47205 8.3812 2.4716 7.31285 7.35614 2.7037 
7.35399 7.38386 2.83704 7.205 7.35399 2.72593 7.14993 7.36789 2.83704 
7.09357 7.37061 2.91852 7.02933 7.37534 2.97037 7.59 8.3209 2.6 
7.645 8.36 2.63704 7.7 8.39899 2.7037 7.75507 8.41289 2.76296 
7.81143 8.41561 2.79259 7.87567 8.42034 2.8 7.49805 8.25 2.57037 
7.49611 8.195 2.52593 7.52114 8.14 2.47407 7.53296 8.085 2.42963 
7.53489 8.03 2.41481 7.535 7.975 2.42963 7.53489 7.92 2.47407 
7.53272 7.86489 2.54074 7.5162 7.80785 2.64444 7.45784 7.73899 2.8 
8.0691 7.59 3 7.3382 7.74308 3.17315 8.02477 8.38132 2.83333 
8.08632 8.36217 2.89259 8.15393 8.35297 2.98519 6.88033 7.33419 3.13333 
6.82072 7.30186 3.26667 7.36946 7.48215 2.94074 7.366 7.55101 2.94074 
7.3932 7.4409 3.2 7.34282 7.5509 3.2 7.315 7.71987 3.19537 
8.14 7.7 3.36296 8.19489 7.755 3.4963 8.24796 7.81 3.58519 
8.29093 7.865 3.63704 8.31682 7.92 3.65185 8.34593 7.975 3.63704 
8.35796 8.03 3.59259 8.35979 8.085 3.52593 8.35785 8.14008 3.44074 
8.34378 8.19645 3.33704 8.30081 8.25884 3.22222 8.0194 7.7053 3.3358 
5.61204 6.19899 3.37037 5.56907 6.15785 3.32593 5.54318 6.10489 3.27407 
5.51396 6.05 3.22963 5.5 5.995 3.20741 5.48614 5.94 3.2 
5.45896 5.885 3.2 5.44693 5.83 3.2 5.44307 5.775 3.19259 
5.43093 5.72 3.17037 5.40192 5.665 3.12593 5.37797 5.61 3.07407 
5.34703 5.555 3.03704 5.32308 5.5 3.03704 5.29396 5.445 3.07407 
5.28 5.39 3.12593 5.26625 5.335 3.16296 5.24101 5.28 3.17037 
5.24101 5.225 3.14815 5.26625 5.17 3.11852 5.28 5.115 3.08148 
5.29386 5.06 3.05926 5.32104 5.005 3.05185 5.33296 4.95 3.08148 
5.33478 4.895 3.13333 5.33296 4.84 3.2 5.32104 4.785 3.27407 
5.29407 4.73 3.35556 5.28408 4.675 3.44444 5.29418 4.62 3.52593 
5.32308 4.565 3.59259 5.34692 4.51 3.64444 5.37593 4.455 3.67407 
5.38785 4.4 3.6963 5.38796 4.345 3.6963 5.37818 4.29 3.68889 
5.36486 4.235 3.65185 7.095 6.985 3.4 7.095 7.04 3.4 
7.33101 7.09285 3.42963 7.37215 7.13378 3.42222 7.42511 7.1457 3.37037 
7.48 7.13399 3.2963 7.535 7.09715 3.23704 7.58992 7.07212 3.22037 
7.64333 7.0994 3.2463 7.68687 7.15226 3.31481 7.70083 7.30103 3.50741 
7.68641 7.36796 3.61667 7.65684 7.42489 3.73889 7.63104 7.48 3.86667 
7.425 7.48011 3.57037 7.48 7.48215 3.72593 7.535 7.49601 3.86667 
7.86394 7.8544 3.54025 7.76454 8.0141 3.51556 7.17216 7.759 3.55 
7.1138 7.70054 3.68426 7.09728 7.64503 3.76204 7.86394 7.8312 3.56247 
7.36603 7.91603 3.73981 7.095 9.79 3.6963 7.15 9.735 3.76296 
7.20489 9.68 3.79259 7.25796 9.625 3.80741 7.30093 9.57 3.82963 
7.32682 9.515 3.87407 7.35604 9.46 3.92593 7.37 9.405 3.97778 
7.38386 9.35 4.02222 7.41104 9.295 4.07407 7.42296 9.24 4.11852 
7.42489 9.185 4.14074 7.42489 9.13 4.11852 7.42296 9.075 4.08148 
7.41114 9.02 4.06667 7.3859 8.965 4.11111 7.38407 8.91 4.2 
7.39911 8.855 4.28889 7.39396 8.8 4.34074 7.40104 8.745 4.34815 
7.39589 8.69 4.34074 7.41104 8.635 4.33333 7.41114 8.58 4.33333 
7.39782 8.525 4.34074 7.41308 8.47 4.36296 7.42307 8.415 4.4 
7.425 8.36 4.44444 7.42704 8.305 4.48148 7.43896 8.25 4.51111 
7.46598 8.19495 4.50741 7.47688 8.13893 4.44815 7.47189 8.077 4.3037 
7.31704 6.325 3.8 7.27396 6.38 3.8 7.24604 6.435 3.8 
7.20296 6.49 3.8 7.14989 6.54489 3.8 7.095 6.59796 3.79259 
7.04 6.64093 3.77037 6.985 6.66671 3.72593 6.93 6.69378 3.68148 
6.875 6.69185 3.66667 6.82 6.65274 3.71852 6.765 6.59989 3.83704 
7.41114 6.215 4 7.43896 6.16 4.2 7.48204 6.105 4.4 
7.69364 7.9041 3.88444 6.14604 5.39 3.97037 6.17192 5.445 3.96296 
6.20297 5.5 3.97778 6.22692 5.555 3.99259 6.25604 5.61 4 
6.215 6.50601 4 6.27 6.49215 4 6.325 6.49011 4 
6.38 6.49 4 6.435 6.48989 4 6.49 6.48807 4 
6.545 6.47818 4 6.6 6.46508 4 6.655 6.49419 4 
6.765 6.50386 4.17037 6.82 6.47604 4.31852 6.875 6.43296 4.43704 
6.93 6.37989 4.51852 6.985 6.325 4.57037 7.57614 7.59 4.02963 
7.54907 7.64511 4.07111 7.53919 7.70215 4.11111 7.55111 7.77101 4.12889 
7.50385 7.92795 4.09852 7.52705 7.95115 4.12074 8.085 5.72 4.4 
8.01399 5.82989 4.4 7.97285 5.88285 4.4 7.91989 5.92399 4.40741 
7.865 5.94 4.42963 7.81 5.9559 4.47407 7.755 5.995 4.52593 
7.7 6.03399 4.57037 7.645 6.04785 4.59259 7.59 6.04989 4.6 
7.975 5.72011 4.5037 7.91996 5.66701 4.59259 7.86428 5.62325 4.66667 
7.80466 5.59081 4.73333 5.885 3.57511 4.66667 5.93979 3.57715 4.72593 
5.99081 3.59111 4.77037 6.01992 3.63215 4.79259 6.00671 3.68511 4.8 
7.48419 5.995 4.6 7.45519 5.94 4.6 7.47033 5.885 4.60741 
7.49407 5.83 4.62963 7.53489 5.775 4.67407 7.5741 5.72 4.72593 
7.59007 5.66507 4.77037 7.60744 5.61143 4.79259 7.65782 5.56567 4.8 
7.74125 5.225 4.8 7.71601 5.28 4.8 7.71597 5.33507 4.8 
7.74043 5.39143 4.8 7.74762 5.45567 4.8 
LINES 47 433
4 44 45 46 39 
6 37 47 48 49 50 43 
4 43 51 52 42 
6 43 53 54 55 56 35 
40 41 57 58 59 60 61 62 63 64 65 66 67 68 69 70 71 72 73 74 75 76 77 78 79 80 81 82 83 84 85 86 87 88 89 90 91 92 93 94 18 
9 40 95 96 97 98 99 100 101 37 
8 40 102 103 104 105 106 107 20 
15 40 108 109 110 111 112 113 114 115 116 117 118 119 120 34 
3 37 121 38 
4 39 122 123 33 
6 39 124 125 126 127 34 
8 38 128 129 130 131 132 133 35 
12 38 134 135 136 137 138 139 140 141 142 143 32 
3 36 144 31 
3 32 145 20 
4 34 149 150 25 
4 33 151 152 32 
3 33 153 24 
3 32 154 24 
3 32 155 20 
3 31 167 21 
39 29 168 169 170 171 172 173 174 175 176 177 178 179 180 181 182 183 184 185 186 187 188 189 190 191 192 193 194 195 196 197 198 199 200 201 202 203 204 22 
4 28 205 206 26 
5 24 219 220 221 10 
3 21 222 15 
3 23 223 15 
5 20 224 225 226 16 
3 21 227 15 
3 20 228 8 
34 19 229 230 231 232 233 234 235 236 237 238 239 240 241 242 243 244 245 246 247 248 249 250 251 252 253 254 255 256 257 258 259 260 8 
14 18 261 262 263 264 265 266 267 268 269 270 271 272 11 
5 18 273 274 275 4 
3 15 276 9 
7 14 277 278 279 280 281 13 
11 12 282 283 284 285 286 287 288 289 290 11 
7 11 291 292 293 294 295 3 
6 10 296 297 298 299 9 
3 9 300 8 
3 9 301 8 
3 7 302 6 
11 6 303 304 305 306 307 308 309 310 311 4 
6 6 312 313 314 315 0 
7 5 316 317 318 319 320 2 
11 4 321 322 323 324 325 326 327 328 329 0 
7 1 330 331 332 333 334 0 
17 35 146 147 148 30 166 165 164 163 162 161 160 159 158 157 156 31 
15 27 207 208 209 210 211 212 213 214 17 215 216 217 218 10 

POINT_DATA 335
FIELD FieldData 7
vox_ch1 1 335 double
3287.75 2945.44 2646.73 3261.25 3287.47 2740.6 3399.7 2941.28 3616.49 
3816.69 3941.32 3216.28 2776.11 2942.56 3150.81 3917.04 3426.04 3860.78 
3393.99 3288.27 4058.77 4017.68 3011.14 3441.19 3897.99 3254.35 3180.1 
3121.3 3025.26 2790.46 3161.65 3731.77 4030.2 4124.47 3613.26 3229.22 
3371.26 3768.28 4201.43 4004.05 3167.63 2983.2 3051.9 3530.05 2975.4 
3290.44 3773.11 3766.01 3693.36 3632.73 3529.53 3258.86 3233.43 3579.09 
3681.95 3613.84 3382.77 2983.2 3047.3 3084.02 3084.02 3182.15 3221.2 
3221.2 3213.06 3187.59 3191.19 3159.94 3172.73 3153.01 3073.6 3073.6 
3014.23 2995.46 2995.46 3043.47 3043.47 3047.52 3129.22 3142.2 3183.8 
3252.25 3233.58 3313.04 3333.7 3279.04 3347.36 3471.43 3551.51 3542.78 
3639.16 3675.63 3649.98 3582.9 3659.23 3210.25 3162.53 3230.44 3221.01 
3286.54 3414.83 3583.78 3272.73 3262.1 3268.19 3368.06 3574.22 3823.95 
3167.63 3147.88 3123.65 3140.09 3125.68 3204.69 3166.44 3279.84 3314.02 
3255.31 3140.7 3310.16 3498.78 4080.94 3978.74 4127.17 3703.75 3646.54 
3711.9 3684.01 4118.88 4118.88 3824.83 3493.33 3329.26 3267.3 4210.51 
4182.89 4162.48 4071.63 3834.47 3821.32 3821.32 3826.38 3923.01 4127.06 
3689.22 4172.32 3213.91 3128.68 3186.99 3544.37 3540.69 4077.69 4046.74 
4071.33 3951.53 4206.84 3779.89 3827.43 3777.31 3630.02 3423.52 3423.52 
3391.9 3202.7 3239.68 3224.4 3183.86 3980.37 2833.32 2896.79 2918.02 
2906.7 2929.48 2929.48 2978.43 3081.19 3029.46 3108.62 3135.63 3074.3 
3203.14 3155.46 3155.46 3238.79 3124.36 3184.42 3227.41 3224.93 3221.53 
3185.95 3185.95 3121.1 3083.6 3131.88 3141.77 3170.16 3165.11 3114.15 
3075.72 3033.75 3044.77 2990.85 3052.64 3045.93 3072.16 3129.88 3129.88 
3221.81 3412.79 3475.41 3524.41 3514.14 3362.81 3546.33 3734.52 3954.11 
3964.69 3991.74 4070.43 4061.84 4156.69 3988.48 4147.62 3815.8 3813.37 
3682.04 3674.69 4147.62 3765.7 3314.6 3283.32 3283.32 3255.75 3297.2 
3286.79 3285.51 3288.65 3343.33 3315.1 3314.84 3287.02 3306.68 3302.35 
3287.11 3303.32 3338.58 3337.72 3277.06 3189.4 3226.02 3226.02 3239.79 
3284.68 3247.37 3294.7 3404.41 3361.09 3290.19 3336.77 3384.54 3479.14 
3400.49 3289.31 3266.67 3237.37 3170.38 3186.17 3171.68 3116.11 3132.12 
3088.32 3216.4 3228.85 3423.7 3494.86 3368.99 3939.6 3150.81 3190.77 
3190.77 3187.21 2942.56 2862.47 2862.47 2883.35 2916.51 2916.51 2940.65 
3012.31 3012.31 3226.07 3265.59 3296.67 3268.52 3307.84 3343.2 3899.64 
3847.31 3811.68 3720.21 3691.62 3691.62 3196.4 3399.7 3352.28 3312.12 
3272.36 3237.89 3183.68 3204 3288.88 3288.88 3328.26 3239.43 3253.49 
3281.35 2854.6 2858.91 2919.9 2907.33 2794.35 3362.48 3309.27 3241.93 
3185.86 3185.86 3199.84 3282.75 3267.25 3281.67 2885.81 3033.06 3115.11 
3174.93 3254.36 
vox_ch2 1 335 double
2743.28 2540.81 2426.63 2599.23 2749.19 2473.72 2747.84 2423.58 2786.16 
3043.15 3101.58 2706.19 2456.35 2520.64 2696.46 2866.8 2859.04 2920.02 
2929.46 2633.17 3071.59 2966.11 2545.96 2727.51 3028.1 2727.91 2569.51 
2589.51 2510.85 2444.93 2718.84 2746.57 3087.48 3212.65 2935.73 2825.41 
2561.57 2937.28 3077.67 3148.17 2799.2 2592.9 2618.67 2789.48 2529.85 
2625.44 2897.77 2898.9 2930.96 2938.38 2908.69 2714.21 2733.14 2911.77 
2852.9 2797.37 2781.12 2592.9 2648.14 2704.83 2704.83 2775.06 2796.93 
2796.93 2798.14 2805 2816.28 2782.25 2802.56 2764.69 2687.12 2687.12 
2634.26 2616.86 2616.86 2644.99 2644.99 2664.07 2691.33 2683.6 2718.44 
2756.48 2783.05 2766.72 2853.52 2914.54 3011.05 3054.2 3021.01 2977.93 
2900.25 2892.54 2907.74 2967.14 2908.09 2757.27 2632.3 2669.33 2675.59 
2728.79 2790.7 2843.58 2814.42 2844.6 2845.21 2875.9 3021.74 3075.31 
2799.2 2781.14 2738.89 2728.94 2720.16 2695.64 2680.98 2678.35 2679.73 
2683.58 2706.09 2770.22 2875.96 3054.32 3196.84 3238.23 3088.43 3001.57 
2958.02 2955.42 2984.46 2984.46 2921.3 2888.56 2861.54 2848.68 3036.83 
3062.2 3075.36 3045.31 2960.09 2933.07 2933.07 2885.31 2902.17 2972.43 
2720.67 3086 2817.02 2715.17 2752.79 2906.78 2814.98 3193.56 3123.43 
3055.32 3066.56 3092.7 2771.04 2852.49 2750.78 2663.93 2628.04 2628.04 
2661.67 2694.28 2705.95 2698.32 2712.81 2961.53 2433.23 2451.07 2467.49 
2468.85 2465.31 2465.31 2461.16 2490.74 2523.7 2569.41 2570.1 2616.86 
2639.59 2662.49 2662.49 2633.47 2647.16 2641.7 2658.21 2659.64 2624.6 
2639.37 2639.37 2640.57 2630.25 2605.21 2573.12 2570.11 2563.43 2543.91 
2534.6 2509.64 2580.4 2584.74 2585.43 2576.2 2578.53 2555.14 2555.14 
2681.27 2783.07 2797.41 2851.32 2846.38 2794.21 2876.16 2941.83 2951.96 
3040.54 3043.1 3132.1 3116.09 3190.52 3179.46 2948 2823.54 3067.59 
2967.94 2917.07 2948 2977.68 2728.37 2686.36 2686.36 2669.88 2682.69 
2637.3 2674.85 2706.81 2646.3 2640.89 2664.95 2645.07 2650.72 2586.09 
2593.19 2563.58 2553.85 2587.53 2590 2657.78 2694.54 2694.54 2744.21 
2757.91 2749.33 2744.46 2716.65 2716.35 2714.4 2717.09 2721.07 2731.33 
2895.49 2730.96 2728.33 2658.25 2601.31 2617.41 2626.54 2593.31 2621.14 
2628.26 2644.78 2667.11 2862.96 2859.15 2761.22 3050.77 2696.46 2719.21 
2719.21 2662.35 2520.64 2495.09 2495.09 2505.64 2550.35 2550.35 2595.77 
2666.49 2666.49 2734.56 2700.78 2631.96 2645.35 2634.78 2610.01 3112.38 
3081.67 3071.16 3056.14 2859.53 2859.53 2553.09 2747.84 2759.42 2718.69 
2647.43 2629.73 2606.96 2591.86 2651.69 2651.69 2760.21 2708.96 2703.78 
2718.69 2516.91 2537.35 2546.91 2525.77 2479.47 2748.83 2773.89 2724.62 
2645.42 2645.42 2645.1 2667.48 2684.94 2732.91 2573.78 2667.59 2706.27 
2731.81 2750.33 
background_sub_ch2 1 335 double
447.413 244.944 130.759 303.364 453.314 177.845 451.969 127.709 490.289 
747.277 805.709 410.314 160.475 224.771 400.586 570.931 563.166 624.154 
633.586 337.302 775.722 670.24 250.092 431.635 732.228 432.043 273.635 
293.635 214.981 149.055 422.969 450.697 791.61 916.783 639.857 529.536 
265.697 641.413 781.796 852.302 503.327 297.03 322.796 493.61 233.981 
329.573 601.894 603.03 635.092 642.512 612.82 418.339 437.265 615.894 
557.03 501.499 485.252 297.03 352.265 408.956 408.956 479.191 501.055 
501.055 502.265 509.129 520.413 486.376 506.685 468.82 391.252 391.252 
338.388 320.993 320.993 349.117 349.117 368.203 395.462 387.734 422.573 
460.61 487.178 470.845 557.648 618.672 715.178 758.327 725.141 682.055 
604.376 596.672 611.87 671.265 612.215 461.401 336.425 373.462 379.722 
432.919 494.833 547.709 518.549 548.734 549.339 580.03 725.87 779.438 
503.327 485.265 443.018 433.067 424.289 399.771 385.104 382.475 383.857 
387.709 410.215 474.351 580.092 758.45 900.969 942.364 792.561 705.697 
662.154 659.549 688.586 688.586 625.425 592.685 565.672 552.808 740.956 
766.327 779.487 749.438 664.215 637.203 637.203 589.438 606.302 676.561 
424.796 790.129 521.154 419.302 456.919 610.907 519.104 897.685 827.561 
759.45 770.685 796.833 475.166 556.623 454.907 368.055 332.166 332.166 
365.796 398.413 410.08 402.45 416.944 665.66 137.364 155.203 171.623 
172.981 169.438 169.438 165.289 194.87 227.833 273.536 274.228 320.993 
343.722 366.623 366.623 337.598 351.289 345.833 362.339 363.771 328.734 
343.499 343.499 344.697 334.376 309.339 277.252 274.24 267.561 248.043 
238.734 213.771 284.524 288.87 289.561 280.327 282.66 259.265 259.265 
385.401 487.203 501.536 555.45 550.512 498.339 580.289 645.956 656.092 
744.672 747.228 836.228 820.215 894.648 883.586 652.129 527.672 771.722 
672.067 621.203 652.129 681.808 432.499 390.487 390.487 374.006 386.82 
341.425 378.981 410.944 350.425 345.018 369.08 349.203 354.845 290.215 
297.314 267.709 257.981 291.66 294.129 361.907 398.672 398.672 448.339 
462.043 453.462 448.586 420.783 420.475 418.524 421.215 425.203 435.462 
599.623 435.092 432.462 362.376 305.438 321.536 330.672 297.438 325.265 
332.388 348.907 371.24 567.092 563.277 465.351 754.894 400.586 423.339 
423.339 366.475 224.771 199.215 199.215 209.771 254.475 254.475 299.894 
370.623 370.623 438.685 404.907 336.092 349.475 338.907 314.141 816.512 
785.796 775.289 760.265 563.66 563.66 257.215 451.969 463.549 422.82 
351.561 333.857 311.092 295.993 355.82 355.82 464.339 413.092 407.907 
422.82 221.043 241.475 251.043 229.894 183.598 452.956 478.018 428.746 
349.549 349.549 349.228 371.61 389.067 437.043 277.907 371.722 410.401 
435.944 454.462 
background_sub_ch1 1 335 double
969.398 627.089 328.373 942.892 969.114 422.25 1081.35 622.929 1298.14 
1498.34 1622.97 897.929 457.756 624.201 832.46 1598.68 1107.68 1542.42 
1075.63 969.917 1740.41 1699.32 692.781 1122.83 1579.63 935.991 861.744 
802.941 706.904 472.102 843.299 1413.41 1711.84 1806.11 1294.9 910.867 
1052.9 1449.93 1883.08 1685.69 849.275 664.843 733.546 1211.69 657.04 
972.089 1454.76 1447.66 1375 1314.37 1211.18 940.509 915.077 1260.73 
1363.6 1295.48 1064.41 664.843 728.941 765.67 765.67 863.793 902.843 
902.843 894.707 869.238 872.83 841.583 854.373 834.657 755.25 755.25 
695.88 677.102 677.102 725.114 725.114 729.164 810.867 823.843 865.447 
933.892 915.225 994.682 1015.35 960.682 1029 1153.08 1233.15 1224.42 
1320.81 1357.27 1331.62 1264.55 1340.88 891.892 844.176 912.089 902.657 
968.188 1096.47 1265.42 954.373 943.744 949.83 1049.71 1255.87 1505.6 
849.275 829.522 805.299 821.731 807.324 886.336 848.089 961.485 995.67 
936.954 822.349 991.805 1180.42 1762.58 1660.39 1808.82 1385.4 1328.19 
1393.55 1365.66 1800.52 1800.52 1506.47 1174.98 1010.9 948.941 1892.15 
1864.53 1844.13 1753.27 1516.11 1502.97 1502.97 1508.03 1604.66 1808.71 
1370.87 1853.97 895.559 810.324 868.633 1226.02 1222.34 1759.34 1728.39 
1752.98 1633.18 1888.48 1461.53 1509.08 1458.95 1311.67 1105.16 1105.16 
1073.55 884.349 921.324 906.04 865.509 1662.02 514.966 578.435 599.67 
588.349 611.126 611.126 660.077 762.83 711.102 790.262 817.275 755.941 
884.781 837.102 837.102 920.435 806.003 866.065 909.052 906.571 903.176 
867.596 867.596 802.744 765.25 813.522 823.41 851.805 846.756 795.793 
757.361 715.398 726.41 672.497 734.287 727.571 753.805 811.522 811.522 
903.46 1094.44 1157.05 1206.05 1195.78 1044.46 1227.98 1416.16 1635.76 
1646.34 1673.39 1752.08 1743.48 1838.34 1670.13 1829.26 1497.45 1495.02 
1363.68 1356.34 1829.26 1447.35 996.25 964.966 964.966 937.398 978.843 
968.435 967.151 970.299 1024.98 996.744 996.485 968.67 988.324 983.991 
968.756 984.966 1020.23 1019.36 958.707 871.04 907.67 907.67 921.435 
966.324 929.015 976.349 1086.05 1042.73 971.83 1018.41 1066.19 1160.78 
1082.14 970.954 948.312 919.015 852.028 867.818 853.324 797.756 813.768 
769.966 898.04 910.497 1105.35 1176.51 1050.63 1621.25 832.46 872.41 
872.41 868.855 624.201 544.114 544.114 564.991 598.151 598.151 622.299 
693.954 693.954 907.719 947.238 978.312 950.164 989.485 1024.84 1581.29 
1528.95 1493.32 1401.85 1373.26 1373.26 878.04 1081.35 1033.93 993.768 
954.003 919.534 865.324 885.645 970.522 970.522 1009.9 921.077 935.139 
962.991 536.25 540.559 601.546 588.978 475.991 1044.13 990.917 923.571 
867.509 867.509 881.485 964.398 948.892 963.312 567.46 714.707 796.756 
856.571 936.003 
width_equivalent 1 335 double
3.50337 1.91798 1.02388 2.37542 3.54958 1.39258 3.53904 1 3.83911 
5.85139 6.30893 3.21288 1.25656 1.76002 3.1367 4.47056 4.40975 4.8873 
4.96116 2.64117 6.07412 5.24817 1.95829 3.37983 5.73355 3.38302 2.14264 
2.29925 1.68336 1.16714 3.31196 3.52909 6.19854 7.17868 5.01027 4.14642 
2.08048 5.02245 6.12168 6.67377 3.94119 2.32583 2.52758 3.86511 1.83214 
2.58065 4.71301 4.7219 4.97295 5.03105 4.79856 3.27571 3.42391 4.82263 
4.36171 3.92688 3.79967 2.32583 2.75833 3.20224 3.20224 3.7522 3.9234 
3.9234 3.93288 3.98663 4.07498 3.80846 3.96749 3.671 3.06362 3.06362 
2.64968 2.51347 2.51347 2.73368 2.73368 2.88314 3.09658 3.03607 3.30887 
3.60671 3.81475 3.68685 4.36654 4.84438 5.60005 5.93791 5.67806 5.34069 
4.73244 4.67211 4.79112 5.2562 4.79382 3.6129 2.63431 2.92432 2.97333 
3.38988 3.87468 4.28872 4.06039 4.29674 4.30148 4.5418 5.68377 6.10322 
3.94119 3.79976 3.46896 3.39104 3.32231 3.13032 3.01548 2.99489 3.00571 
3.03587 3.2121 3.71431 4.54229 5.93888 7.05484 7.37898 6.20598 5.52581 
5.18485 5.16446 5.39182 5.39182 4.89726 4.64089 4.42938 4.32865 5.8019 
6.00056 6.10361 5.86831 5.201 4.98948 4.98948 4.61547 4.74752 5.29767 
3.32627 6.18694 4.08078 3.28325 3.57781 4.78358 4.06474 7.02913 6.48004 
5.94671 6.03468 6.23943 3.72069 4.35852 3.56205 2.88198 2.60096 2.60096 
2.86428 3.11969 3.21104 3.1513 3.26479 5.21231 1.0756 1.21528 1.34386 
1.35449 1.32675 1.32675 1.29426 1.52589 1.784 2.14187 2.14728 2.51347 
2.69144 2.87076 2.87076 2.64349 2.7507 2.70797 2.83722 2.84843 2.57408 
2.6897 2.6897 2.69908 2.61826 2.42221 2.17097 2.14738 2.09508 1.94224 
1.86936 1.67389 2.2279 2.26193 2.26735 2.19504 2.21331 2.03012 2.03012 
3.0178 3.81494 3.92717 4.34933 4.31066 3.90214 4.54383 5.05802 5.13739 
5.831 5.85101 6.5479 6.42252 7.00535 6.91873 5.10636 4.13182 6.0428 
5.26248 4.8642 5.10636 5.33875 3.38659 3.05763 3.05763 2.92857 3.02891 
2.67346 2.96753 3.21781 2.74393 2.70159 2.89 2.73436 2.77854 2.27247 
2.32806 2.09624 2.02006 2.28378 2.30311 2.83383 3.12172 3.12172 3.51062 
3.61793 3.55074 3.51256 3.29485 3.29244 3.27716 3.29824 3.32946 3.40979 
4.69522 3.40689 3.3863 2.83751 2.39166 2.51772 2.58926 2.32902 2.54692 
2.6027 2.73204 2.90692 4.44049 4.41062 3.64383 5.91104 3.1367 3.31486 
3.31486 2.8696 1.76002 1.55991 1.55991 1.64257 1.99261 1.99261 2.34826 
2.90208 2.90208 3.43503 3.17054 2.6317 2.73649 2.65374 2.45982 6.39352 
6.15301 6.07074 5.95309 4.41362 4.41362 2.01407 3.53904 3.62972 3.3108 
2.75282 2.6142 2.43594 2.31771 2.78618 2.78618 3.63591 3.23463 3.19403 
3.3108 1.73083 1.89082 1.96574 1.80014 1.43763 3.54678 3.74302 3.35721 
2.73707 2.73707 2.73455 2.90982 3.04651 3.42217 2.17609 2.91069 3.21355 
3.41356 3.55857 
norm_scaled 1 335 double
0.211657 0.326072 0.311869 0.485422 0.203273 0.27202 0.277334 1 0.351534 
0.164661 0.167357 0.217973 0.411092 0.389149 0.185902 0.395859 0.15356 0.300217 
0.0752811 0.417781 0.234027 0.318877 0.387128 0.338054 0.20893 0.211586 0.497378 
0.376771 0.537791 0.502629 0.161376 0.493543 0.210437 0.154482 0.170093 0.0818039 
0.733953 0.238947 0.282023 0.156738 0.0722664 0.232485 0.242424 0.295429 0.398175 
0.439306 0.284438 0.279691 0.211183 0.176473 0.156326 0.235364 0.190155 0.176855 
0.293456 0.332785 0.219463 0.232485 0.183341 0.126042 0.126042 0.10579 0.105579 
0.105579 0.0996068 0.0780763 0.069319 0.0847678 0.0719408 0.0993133 0.142933 0.142933 
0.179606 0.195001 0.195001 0.18558 0.18558 0.15747 0.177854 0.199469 0.177159 
0.171189 0.127895 0.195917 0.111072 0.033152 0 0.0237717 0.0761174 0.103635 
0.217103 0.243082 0.21446 0.129407 0.2185 0.14371 0.311275 0.291792 0.272863 
0.231938 0.225955 0.253448 0.1168 0.0817268 0.0843978 0.107865 0.0847214 0.143312 
0.0722664 0.078692 0.110195 0.133374 0.134915 0.226323 0.221997 0.312613 0.335876 
0.284344 0.164549 0.189613 0.173335 0.257385 0.117504 0.139766 0.089911 0.128904 
0.193596 0.183718 0.341971 0.341971 0.28204 0.158092 0.101276 0.080775 0.324189 
0.289125 0.269567 0.261899 0.245356 0.267494 0.267494 0.325572 0.351224 0.359003 
0.520024 0.263922 0.0813077 0.143577 0.13442 0.16519 0.266334 0.151517 0.188933 
0.252817 0.19783 0.270779 0.476033 0.369979 0.514217 0.617924 0.549109 0.549109 
0.435028 0.22707 0.234926 0.236268 0.185244 0.307652 0.67176 0.665372 0.597663 
0.570655 0.630429 0.630429 0.742868 0.719926 0.489211 0.421719 0.448244 0.266422 
0.330138 0.245564 0.245564 0.374426 0.248802 0.309832 0.311157 0.306301 0.380537 
0.316074 0.316074 0.258813 0.247109 0.34635 0.445225 0.48482 0.501879 0.514549 
0.504114 0.554757 0.324018 0.258577 0.319013 0.336338 0.357097 0.491808 0.491808 
0.263282 0.23483 0.252467 0.213004 0.213242 0.191071 0.196964 0.219124 0.306602 
0.224494 0.232822 0.190877 0.199725 0.17913 0.131252 0.397294 0.406824 0.144942 
0.171647 0.216521 0.397294 0.198902 0.251436 0.300206 0.300206 0.310438 0.317449 
0.406421 0.3237 0.268208 0.432158 0.421691 0.366719 0.388245 0.391526 0.567549 
0.529108 0.651495 0.731584 0.597931 0.529433 0.281485 0.243661 0.243661 0.179247 
0.189773 0.177356 0.214515 0.332146 0.302737 0.256836 0.284679 0.31076 0.356748 
0.106398 0.230538 0.21926 0.319077 0.392777 0.366444 0.332015 0.361536 0.309127 
0.255215 0.330065 0.294796 0.148404 0.188979 0.238132 0.206125 0.185902 0.180865 
0.180865 0.271028 0.389149 0.37584 0.37584 0.364815 0.265121 0.265121 0.185017 
0.126084 0.126084 0.183308 0.261883 0.428054 0.372219 0.430611 0.530272 0.144764 
0.147411 0.141715 0.117798 0.290071 0.290071 0.574261 0.277334 0.230206 0.265063 
0.370703 0.382524 0.390462 0.451686 0.374757 0.374757 0.214057 0.229988 0.248255 
0.243896 0.287067 0.232564 0.278398 0.3266 0.335503 0.251921 0.184409 0.208006 
0.303292 0.303292 0.315592 0.336264 0.290814 0.222557 0.175376 0.14071 0.146152 
0.152973 0.180516 
norm_unscaled 1 335 double
276.704 326.953 320.715 396.936 273.022 303.215 305.548 622.929 338.136 
256.065 257.249 279.478 364.292 354.655 265.393 357.602 251.189 315.598 
216.811 367.23 286.529 323.793 353.768 332.215 275.507 276.673 402.188 
349.219 419.936 404.494 254.622 400.503 276.169 251.594 258.45 219.675 
506.086 288.69 307.608 252.585 215.487 285.852 290.217 313.495 358.619 
376.683 308.668 306.584 276.496 261.252 252.404 287.116 267.261 261.42 
312.629 329.901 280.133 285.852 264.269 239.104 239.104 230.21 230.117 
230.117 227.494 218.038 214.192 220.977 215.344 227.365 246.522 246.522 
262.628 269.389 269.389 265.252 265.252 252.906 261.859 271.352 261.554 
258.932 239.918 269.792 232.529 198.309 183.749 194.189 217.178 229.263 
279.096 290.505 277.935 240.582 279.71 246.863 320.455 311.898 303.585 
285.611 282.984 295.058 235.045 219.642 220.815 231.121 220.957 246.689 
215.487 218.309 232.145 242.324 243.001 283.145 281.246 321.042 331.259 
308.627 256.016 267.023 259.874 296.787 235.354 245.131 223.236 240.361 
268.773 264.434 333.936 333.936 307.615 253.18 228.227 219.224 326.126 
310.727 302.137 298.77 291.505 301.227 301.227 326.734 337.999 341.416 
412.133 299.658 219.458 246.805 242.783 256.297 300.717 250.292 266.725 
294.781 270.632 302.669 392.813 346.236 409.583 455.129 424.907 424.907 
374.804 283.473 286.924 287.513 265.104 318.864 478.773 475.967 446.231 
434.369 460.621 460.621 510.002 499.926 398.601 368.959 380.609 300.756 
328.739 291.596 291.596 348.189 293.018 319.821 320.403 318.27 350.873 
322.562 322.562 297.414 292.274 335.859 379.283 396.672 404.164 409.729 
405.146 427.387 326.051 297.311 323.853 331.462 340.579 399.741 399.741 
299.377 286.881 294.627 277.296 277.401 267.664 270.252 279.984 318.402 
282.342 286 267.578 271.464 262.419 241.392 358.232 362.418 247.404 
259.133 278.841 358.232 271.102 294.175 315.593 315.593 320.087 323.166 
362.241 325.911 301.54 373.544 368.947 344.804 354.258 355.699 433.005 
416.122 469.873 505.046 446.348 416.265 307.372 290.76 290.76 262.471 
267.093 261.64 277.96 329.621 316.705 296.546 308.774 320.228 340.425 
230.477 284.997 280.043 323.881 356.249 344.684 329.563 342.528 319.511 
295.834 328.707 313.217 248.925 266.745 288.332 274.275 265.393 263.181 
263.181 302.779 354.655 348.81 348.81 343.968 300.185 300.185 265.005 
239.123 239.123 264.254 298.763 371.742 347.22 372.865 416.634 247.326 
248.489 245.987 235.484 311.142 311.142 435.953 305.548 284.851 300.159 
346.554 351.746 355.232 382.12 348.335 348.335 277.759 284.755 292.777 
290.863 309.823 285.886 306.016 327.185 331.095 294.387 264.737 275.101 
316.948 316.948 322.35 331.429 311.469 281.492 260.77 245.546 247.936 
250.931 263.028 
