# vtk DataFile Version 4.0
vtk output
ASCII
DATASET POLYDATA
POINTS 359 float
7.28444 5.65889 3.86667 7.26 5.445 4 7.425 5.28 4 
7.48 4.895 4 7.535 4.785 4 7.68167 4.65667 3.86667 
7.55333 5.35333 3.8 7.8804 4.0304 3.72531 7.7 5.61 3.4 
7.81 5.335 3.3 7.81 5.17 3.4 8.06667 3.94167 3.26667 
7.535 5.775 3.2 7.22333 6.72833 2.86667 7.26 6.27 3 
8.195 5.06 3 7.425 6.435 2.8 8.26833 4.93167 2.6 
8.2775 4.4275 2.3 6.655 9.845 2.6 6.435 9.845 2.6 
6.93 7.04 2.6 8.06667 5.51833 2.46667 8.14 3.74 2.6 
6.33 9.355 2.27273 5.83 8.855 2.4 5.995 8.58 2.4 
8.14 4.66125 2.25 8.415 4.235 2.4 7.865 3.08 2.4 
6.255 9.85 1.87273 6.27 9.625 2.2 5.72 9.295 2.1 
6.16 9.02 2.2 6.25167 8.76333 2.2 6.325 7.975 2.2 
6.71 9.955 2 5.61 9.625 2 5.885 9.57 2 
6.27 8.47 2 5.94 8.3875 1.95 6.105 8.305 2 
5.995 7.755 2 6.765 7.37 2 7.81 5.83 2 
8.17667 5.31667 1.86667 8.415 4.785 2 5.995 7.865 1.8 
7.81 5.225 1.8 6.82 9.515 1.6 6.16 8.03 1.53333 
6.94833 9.36833 1.13333 6.82 9.24 1.2 5.555 8.91 1.1 
6.325 7.975 1 6.215 7.81 1 7.205 9.405 0.8 
7.14993 9.40493 0.834568 7.09357 9.40357 0.898765 7.02933 9.39433 1.00247 
6.17601 7.86715 1.18765 6.16215 7.93601 1.36543 6.2541 8.0141 1.2642 
5.6447 9.00399 0.888889 5.68563 9.07264 0.72963 5.6606 9.1256 0.648148 
5.61 9.15277 0.637037 5.55919 9.1256 0.685185 5.53008 9.07264 0.781481 
5.54329 9.00399 0.925926 5.60785 8.81601 1.21481 5.64899 8.74715 1.30741 
5.665 8.69011 1.37407 5.68101 8.635 1.42963 5.72226 8.57995 1.50926 
5.77726 8.52393 1.62778 5.84601 8.462 1.78148 5.52986 8.965 1.34074 
5.54329 9.02 1.54444 5.55532 9.07511 1.6963 5.57315 9.13215 1.81852 
5.62815 9.20101 1.94815 6.8803 9.3003 1.16049 6.8803 9.4494 1.3679 
6.14614 8.12399 1.57284 6.11896 8.19285 1.66173 6.10704 8.24989 1.81235 
6.0659 7.9359 1.6642 6.215 7.99101 1.76543 6.27 7.97715 1.98765 
6.85899 9.57 1.60741 6.87285 9.625 1.62963 6.87478 9.68 1.67407 
6.87285 9.735 1.73333 6.85889 9.79 1.8 6.81785 9.845 1.86667 
6.76489 9.9 1.93333 6.765 9.4759 1.72593 6.71 9.46011 1.83704 
6.655 9.44614 1.91852 6.59979 9.41887 1.98047 6.5409 9.40509 2.0431 
6.45944 9.39056 2.14141 6.35963 9.97729 1.80808 6.43227 10.0447 1.77643 
6.48986 10.0605 1.78047 6.545 10.0489 1.8 6.6 10.01 1.83704 
6.655 9.9709 1.9037 8.20311 4.392 1.96296 8.14322 4.34393 1.73704 
8.10117 4.28995 1.65556 8.08726 4.235 1.67407 8.08715 4.18 1.72593 
8.09907 4.125 1.77778 8.12808 4.07 1.82222 8.15192 4.015 1.88148 
8.18093 3.96 1.96296 8.19285 3.905 2.08148 8.19274 3.85 2.22963 
8.17899 3.795 2.40741 7.81215 5.17 1.8 7.82601 5.115 1.8 
7.86511 5.06 1.8 7.90603 5.005 1.80741 7.93192 4.95 1.82963 
7.96318 4.89487 1.88333 7.99122 4.83731 1.97222 8.04805 4.76499 2.1 
8.24252 5.23567 1.93086 8.28828 5.17143 1.98272 8.30468 5.11504 2.03951 
8.31528 5.05928 2.14815 8.31947 4.99966 2.34074 8.09567 5.33181 1.73827 
8.03143 5.3504 1.64938 7.97518 5.39211 1.60988 7.92204 5.44511 1.6 
7.87896 5.5 1.6 7.85125 5.555 1.60741 7.81215 5.61 1.62963 
7.78497 5.665 1.68148 7.79818 5.72 1.76296 7.80807 5.775 1.87407 
5.94011 7.92 1.9037 5.88726 7.975 1.99259 5.84805 8.03 2.05926 
5.84418 8.085 2.0963 5.85922 8.14 2.0963 5.856 8.19505 2.06481 
5.87512 8.25107 2.02037 5.89907 8.313 1.98148 5.995 7.81 1.9037 
8.20295 4.55308 2.26481 8.39756 4.83928 2.14074 8.34718 4.88967 2.34074 
8.17294 5.38538 2.07654 8.1318 5.44962 2.27654 7.79604 5.885 2.02963 
7.76682 5.94 2.08148 7.74093 5.995 2.15556 7.69796 6.05 2.24444 
7.645 6.105 2.31852 7.59215 6.16 2.37037 7.55101 6.215 2.4 
7.535 6.27 2.43704 7.51899 6.325 2.51111 7.47785 6.38 2.63704 
7.865 5.775 2.19259 7.91996 5.71993 2.35802 7.97428 5.66357 2.4642 
8.02466 5.59933 2.49383 6.71 7.425 2.06667 6.655 7.48 2.12593 
6.60011 7.535 2.17037 6.54715 7.59 2.19259 6.50601 7.645 2.19259 
6.49011 7.7 2.17778 6.47604 7.755 2.15556 6.44682 7.81 2.14815 
6.42093 7.865 2.15556 6.37796 7.92 2.17778 6.82 7.35399 1.91111 
6.87489 7.31285 1.87407 6.92785 7.25989 1.91852 6.96878 7.205 2.03704 
6.9807 7.15 2.20741 6.96889 7.095 2.4 6.75125 7.315 2.19259 
6.72611 7.26 2.36296 6.72815 7.205 2.48889 6.76726 7.15011 2.56296 
6.82011 7.09715 2.59259 6.875 7.05601 2.6 6.16 8.36 1.94074 
6.215 8.415 1.94074 6.0341 8.35205 1.97593 5.95386 8.462 2.10741 
5.98114 8.52393 2.25741 6.28386 8.525 2.02963 6.31089 8.58004 2.07407 
6.32009 8.63572 2.12593 6.30355 8.69534 2.17037 6.32296 8.415 2.18519 
6.36593 8.36 2.33333 6.39182 8.305 2.40741 6.42093 8.25 2.41481 
6.43285 8.195 2.37037 6.43274 8.14 2.32593 6.41889 8.085 2.28148 
6.37785 8.03 2.24444 5.88274 9.51489 2.0037 5.86674 9.45785 2.01852 
5.81185 9.38899 2.05185 5.665 9.68 2 5.72 9.735 2 
5.775 9.79 2.00741 5.83 9.84489 2.02222 5.885 9.89774 2.04444 
5.94 9.93685 2.05185 5.99519 9.93879 2.03973 6.05371 9.9119 1.99865 
6.13265 9.88749 1.94141 6.24246 9.71324 2.04242 6.67101 9.91386 2.2 
6.65715 9.88614 2.4 8.37525 4.31385 2.35185 8.15672 4.76642 2.38889 
8.20248 4.84799 2.50556 6.17067 8.70919 2.2963 6.10643 8.67675 2.36296 
6.05007 8.63299 2.39259 6.2507 8.84433 2.2 6.2261 8.90857 2.2 
6.201 8.96493 2.2 6.2149 9.07522 2.20269 6.26805 9.13449 2.21347 
6.31045 9.21847 2.23771 6.105 9.01807 2.2 6.05 9.00818 2.2 
5.995 8.99508 2.20741 5.94 9.02419 2.22222 5.885 9.07532 2.24074 
5.83 9.13215 2.23333 5.775 9.20101 2.18519 6.32431 9.48444 2.17845 
6.30919 9.5659 2.15421 6.21748 9.5699 2.35084 6.18275 9.51305 2.42828 
6.21162 9.44545 2.39327 6.32064 9.80961 2.16364 6.37941 9.80835 2.40606 
7.86715 3.135 2.4 7.88101 3.19 2.40741 7.92 3.245 2.42963 
7.9591 3.3 2.46667 7.975 3.355 2.4963 7.9909 3.41 2.5037 
8.03 3.465 2.48889 8.0691 3.52 2.47407 8.08489 3.575 2.46667 
8.09886 3.63 2.48148 8.12614 3.685 2.52593 8.15708 4.57593 2.39259 
8.20515 4.50361 2.40926 5.94215 8.635 2.32593 5.90101 8.69 2.28889 
5.885 8.745 2.2963 5.8691 8.8 2.34074 8.10029 3.79643 2.81235 
8.08181 3.86067 3.03457 8.02456 5.45238 2.6679 7.97214 5.40468 2.8679 
7.90396 5.37618 3.07654 6.985 6.985 2.62963 7.04004 6.92993 2.67654 
7.09572 6.87357 2.73827 7.15534 6.80933 2.80494 8.19183 4.353 2.60741 
8.17244 4.29107 2.83333 8.15219 4.23505 2.95185 8.14193 4.18 3 
8.13996 4.12496 3.0321 8.13714 4.06928 3.08642 8.11866 4.00967 3.1679 
8.2162 4.9997 2.8 8.20034 4.89171 2.86667 8.14072 4.85336 3.08148 
8.08504 4.82804 3.22963 8.03 4.79714 3.32593 7.975 4.77501 3.4 
7.92 4.756 3.46667 7.86496 4.75897 3.5358 7.80928 4.73917 3.61975 
7.74966 4.71059 3.73086 7.46389 6.49 2.7037 7.4757 6.545 2.63704 
7.46378 6.6 2.61481 7.42278 6.65482 2.6321 7.36846 6.70642 2.68642 
7.30433 6.73832 2.7679 7.37 6.38 2.83704 7.315 6.325 2.9037 
7.20715 6.325 3.11852 7.16611 6.38 3.20741 7.15215 6.435 3.24444 
7.15011 6.49 3.24444 7.15014 6.54504 3.20988 7.15286 6.60072 3.14568 
7.17134 6.66034 3.02716 7.20715 6.215 3.2 7.16601 6.16 3.39259 
7.15021 6.105 3.57037 7.13808 6.05 3.71852 7.12078 5.995 3.83704 
7.12218 5.94 3.91852 7.09548 5.88488 3.96543 7.07726 5.82761 3.9679 
7.13842 5.75722 3.93086 7.75715 5.42899 3.25185 7.71611 5.49785 3.25556 
7.70215 5.55489 3.31481 7.47994 5.77477 3.37284 7.42381 5.77046 3.53827 
7.36111 5.74121 3.70123 7.97181 3.97271 3.5142 7.81 5.2409 3.35185 
7.71457 5.31058 3.45185 7.63648 5.32863 3.61852 7.81222 4.11111 3.87284 
7.75726 4.17796 3.95 7.71601 4.23489 3.96111 7.70011 4.29 3.92593 
7.68614 4.345 3.87407 7.65896 4.4 3.82963 7.64711 4.45507 3.80988 
7.64654 4.51143 3.81235 7.65567 4.57567 3.83457 7.4853 5.3012 3.8963 
7.53791 5.43442 3.80247 7.51411 5.50048 3.81235 7.43698 5.56916 3.83457 
7.6006 4.7247 3.9358 7.5191 4.84 4 7.48226 4.76201 4.12593 
7.44326 4.7893 4.17778 7.44315 4.84021 4.12593 7.42715 4.95 4.03704 
7.38611 5.005 4.05185 7.37215 5.06 4.04444 7.37021 5.115 4.02222 
7.37215 5.17 4.00741 7.38601 5.225 4 7.37 5.335 4 
7.315 5.39 4 7.29027 5.53003 3.9358 7.20741 5.49999 3.99506 
7.17137 5.55476 3.97531 7.19127 5.60822 3.93086 
LINES 73 522
5 56 57 58 59 51 
4 55 60 61 50 
3 54 62 50 
9 53 63 64 65 66 67 68 69 53 
9 53 70 71 72 73 74 75 76 40 
7 53 77 78 79 80 81 32 
3 52 82 51 
3 51 83 49 
5 50 84 85 86 41 
3 50 87 47 
4 50 88 89 35 
9 49 90 91 92 93 94 95 96 36 
8 49 97 98 99 100 101 102 24 
8 30 103 104 105 106 107 108 36 
14 18 109 110 111 112 113 114 115 116 117 118 119 120 23 
10 48 121 122 123 124 125 126 127 128 27 
7 45 129 130 131 132 133 17 
12 45 134 135 136 137 138 139 140 141 142 143 44 
10 47 144 145 146 147 148 149 150 151 40 
3 47 152 42 
3 18 153 27 
4 46 154 155 17 
4 45 156 157 22 
12 44 158 159 160 161 162 163 164 165 166 167 16 
6 44 168 169 170 171 22 
12 43 172 173 174 175 176 177 178 179 180 181 35 
8 43 182 183 184 185 186 187 21 
8 43 188 189 190 191 192 193 21 
4 41 194 195 39 
3 41 196 40 
4 40 197 198 26 
6 39 199 200 201 202 34 
10 39 203 204 205 206 207 208 209 210 35 
5 38 211 212 213 32 
11 37 214 215 216 217 218 219 220 221 222 30 
3 30 223 31 
4 36 224 225 19 
3 18 226 28 
4 27 227 228 17 
5 34 229 230 231 26 
5 34 232 233 234 33 
5 33 235 236 237 24 
9 33 238 239 240 241 242 243 244 32 
4 24 245 246 31 
5 31 247 248 249 24 
4 30 250 251 20 
13 29 252 253 254 255 256 257 258 259 260 261 262 23 
4 27 263 264 18 
6 26 265 266 267 268 25 
4 23 269 270 11 
5 22 271 272 273 9 
6 21 274 275 276 277 13 
9 18 278 279 280 281 282 283 284 11 
3 17 285 15 
11 17 286 287 288 289 290 291 292 293 294 5 
8 16 295 296 297 298 299 300 13 
4 16 301 302 14 
9 14 303 304 305 306 307 308 309 13 
11 14 310 311 312 313 314 315 316 317 318 0 
5 9 319 320 321 8 
5 12 322 323 324 0 
3 10 326 9 
4 9 327 328 6 
3 6 338 2 
5 6 339 340 341 0 
3 5 342 4 
3 4 343 3 
5 4 344 345 346 3 
8 3 347 348 349 350 351 352 2 
4 2 353 354 1 
3 1 355 0 
5 1 356 357 358 0 
13 11 325 7 329 330 331 332 333 334 335 336 337 5 

POINT_DATA 359
FIELD FieldData 7
vox_ch1 1 359 double
3069.88 3007.36 3060.69 3119.49 3120.94 3181.47 3093.21 3182.99 3116.79 
3323.85 3216.06 3462.64 3197.99 3119.1 3318.8 3206.15 3231.33 3543.8 
3638.46 2979.17 2864.9 3154.62 3379.98 3462.12 3371.91 2977.72 3110.05 
3507.15 3505.65 2733.32 3263.68 3248.05 3078.74 3202.91 3372.75 2892.35 
3361.98 2869.67 3041.23 3226.75 3214.26 3165.62 2850.7 3050.17 3400.3 
3414.16 3349.23 3001.47 2904.56 3421.32 3208.26 3453.38 2929.98 3113.99 
2722.3 2615.83 2866.84 3000.16 3181.26 3386.89 2787.75 3002.88 2991.15 
2916.12 2891.11 2805.28 2741.99 2820.59 2825.25 2879.06 3245.02 3301.98 
3308.8 3322.67 3284.02 3222.21 3140.98 2902.59 2846.04 3029.63 3070.28 
3090.99 3270.3 3383.75 3168.57 3242.15 3288.43 3198.43 3160.42 3089.33 
3421.32 3437.99 3400.48 3399.75 3394.17 3421.43 3383.3 3348.47 3373.67 
3340.49 3345.09 3362.48 3379.96 3160.11 3079.05 3045.79 3038.63 3022.51 
3226.01 3392.23 3247.65 3134.85 3134.85 3120.57 3135.06 3079.9 3232.01 
3208.84 3400.25 3486.83 3515.52 3045.22 2982.86 3151 3151 3278.36 
3268.44 3338.77 3340.42 3505.11 3582.96 3574.81 3647.21 3599.56 3328.9 
3295.54 3301.31 3314.53 3311.38 3247.42 3290.27 3256.4 3343.2 3411.96 
3107.67 3022.4 2946.94 2973.4 2979.81 2998.52 3042.01 3177.77 2907.43 
3632.26 3447.51 3630.44 3439.79 3425.99 3414.53 3395.86 3391.64 3291.2 
3178.73 3195.9 3095.69 3096.79 3160.78 3220.1 3410.27 3311.98 3305.9 
3317.89 3008.2 2996.65 3014.01 3021.25 2999.2 3005.46 2959.98 2959.98 
2934.74 2926.84 3052.23 3081.83 3133.06 3238.21 3225.75 3284.86 3037.67 
2975.23 2974.89 2992.52 3040.96 3075.56 3175.35 3219.47 3204.23 3229.81 
3176.88 3240.89 3270.93 3292.58 3333.59 3085.86 2935.48 2924.96 2941.4 
2935.79 2952.56 2945.22 2931.99 3116.68 3131.42 3177.06 2751.17 2862.93 
2963 2954.16 3027.84 3023.38 3066.79 3091.28 3189.64 3260.79 3241.72 
3200.27 3516.59 3485.21 3575.02 3275.05 3160.15 3108.81 3399.64 3407.68 
3374.51 3222.1 3268.27 3331.46 3285.52 3225.21 3163.77 3132.64 3100.7 
3133.01 3136.74 3330.57 3298.84 3230.06 3135.59 3184.49 3171.47 3061.06 
2905.32 2996.78 3047.67 3064.2 3052.28 3176.48 3176.48 3277.75 3330.91 
3419.75 3419.75 3540.89 3663.74 3079.43 3008.63 3015.9 3054.47 3551.72 
3491.3 3319.88 3272.65 3295.98 3160.6 3147.01 3133.01 3142.67 3603.31 
3495.53 3453.99 3415.99 3384 3471.75 3543.93 3417.56 3372.72 3239 
3249.33 3319.84 3322.23 3198.31 3186.47 3189.19 3259.31 3186.65 3180.64 
3180.64 3204.32 3223.33 3157.3 3261.68 3338.06 3309.23 3220.02 3220.02 
3168.14 3062.4 3029.93 3052.06 3281.27 3293.86 3242.6 3228.21 3179.42 
3047.27 3054.06 2997.69 3051.75 3282.74 3299.3 3198.19 3188.47 3139.91 
3107.35 3237.84 3328.59 3277.77 3254.26 3122.53 3070.35 3030.19 3090.94 
3048.7 3122.14 3161.11 3191.85 3219.63 3141.69 3014.41 2960.63 2978.23 
3165.06 3119.49 3021.69 3012.15 3012.99 3067.95 3060.73 3060.73 3067.83 
3138.15 3138.15 3088.46 3088.46 3051.84 3020.94 3018.33 3069.56 
vox_ch2 1 359 double
2675.68 2695.07 2695.01 2649.88 2673.43 2757.1 2667.02 2799 2573.63 
2691.74 2705.23 2976.09 2632.49 2783.16 2804.26 2878.88 2769.1 3024.81 
3337.98 2588.48 2571.9 2801.96 2816.9 2991.93 2886.17 2623.57 2739.88 
3283.35 3063.54 2536.42 2911.65 2868.6 2656.74 2859.74 2797.07 2683.52 
2847.64 2555.9 2705.94 2734.6 2833.69 2787.42 2618.16 2722.35 2978.1 
3105.2 2905.12 2719.91 2716.4 2986.41 2782.32 3030.33 2753.09 2857.8 
2492.75 2450.43 2522.99 2620.67 2748.51 2873.75 2586.86 2693.6 2662.19 
2638.58 2529.72 2591.9 2551.51 2606.91 2655.06 2695.14 2916.65 2945.98 
2992.74 2985.77 2927.6 2832.88 2848.6 2630.2 2701.93 2715.06 2670.42 
2666.38 3054.53 3011.11 2779.19 2784.78 2795.57 2810.8 2698.93 2748.07 
2986.41 2963.44 2879.72 2867.49 2840.67 2853.32 2909.58 3047.79 3044.37 
3051.26 3028.43 2957.26 2921.38 2707 2629.89 2611.37 2614.68 2607.15 
2775.46 3260.33 3124.67 3022.79 3022.79 2989.59 2995.44 2989.6 2990.36 
2985.4 3066.84 3097.05 3078.37 2771.04 2793.14 2882.52 2882.52 3025.54 
3100.35 3191.11 3251.22 3107.02 3017.31 3042.38 3051.93 3000.43 3045.3 
2857.73 2774.7 2748.94 2799.41 2829.51 2791.37 2886 2942.2 2985.28 
2840.64 2801.74 2748.77 2768.4 2747.15 2772.49 2785.02 2839.43 2640.01 
3302.31 2925.89 3009.64 3061.02 2879.49 2968.28 2912.73 2954.8 2794.4 
2758.31 2748.9 2746.06 2788.99 2801.27 2859.68 2855.19 2798.37 2785.98 
2789.75 2616.12 2599.8 2633.12 2581.22 2632.43 2606.59 2611.26 2611.26 
2645.93 2689.56 2732.54 2800.37 2819.09 2812.77 2764.9 2872.09 2723.89 
2716.02 2764.77 2714.86 2712.58 2759.22 2794.06 2718.36 2841.85 2819.27 
2805.7 2685.28 2707.58 2733.52 2740.36 2652.44 2622.12 2574.17 2580.98 
2571.2 2577.69 2592.48 2674.59 2711.9 2706.53 2683.41 2512.96 2556.58 
2640.75 2646.75 2748.54 2782.3 2820.62 2888.17 2970.22 2925.19 2736.88 
2708.52 3127.1 3208 3156.72 2784.4 2753.09 2708.6 2803.51 2803.68 
2859.86 2845.88 2861.9 2846.12 2868.51 2842.51 2759.59 2728.22 2650.38 
2661.72 2639.06 2896 2864.62 2837.1 2820.05 2824.25 2821.79 2719.86 
2618.38 2708.72 2690.7 2730.44 2798.86 2831.94 2831.94 2896.63 3006.49 
3030.6 3030.6 3262.26 3358.47 2706.44 2718.42 2688.83 2667.1 3063.51 
3059.74 2847.78 2803.3 2746.57 2778.9 2820.05 2786.51 2777.79 3323.46 
3193.01 3065.85 2965.73 2945.14 2938.62 2946.62 3063.05 3027.52 2909.85 
2874.63 2844.04 2885.37 2811.21 2829.72 2787.59 2783.72 2796.46 2824.49 
2824.49 2854.85 2843.9 2786.42 2850.38 2812.32 2843.9 2873.91 2873.91 
2854.31 2784.22 2767.7 2793.56 2855.93 2853.98 2759.17 2734.31 2700.4 
2669.99 2629.65 2633.06 2659.19 2676.04 2695.59 2638.95 2647.56 2638.57 
2636.73 2869.16 2728.73 2695.14 2681.6 2727.4 2677.88 2645.25 2635.12 
2664.06 2727 2749.3 2756.95 2777.16 2707.01 2615.6 2601.09 2619.77 
2743.23 2649.88 2617.62 2595.58 2599.54 2645.01 2685.85 2685.85 2714.35 
2758.78 2758.78 2755.22 2755.22 2692.64 2674.95 2648.84 2659 
ch1_bckgrnd 1 359 double
767.877 705.358 758.691 817.494 818.938 879.469 791.21 880.988 814.79 
1021.85 914.062 1160.64 895.988 817.099 1016.8 904.148 929.333 1241.8 
1336.46 677.173 562.901 852.617 1077.98 1160.12 1069.91 675.716 808.049 
1205.15 1203.65 431.321 961.679 946.049 776.741 900.914 1070.75 590.346 
1059.98 567.667 739.235 924.753 912.259 863.617 548.704 748.173 1098.3 
1112.16 1047.23 699.469 602.556 1119.32 906.259 1151.38 627.975 811.988 
420.296 313.827 564.84 698.16 879.259 1084.89 485.753 700.877 689.148 
614.123 589.111 503.284 439.988 518.593 523.247 577.062 943.025 999.975 
1006.8 1020.67 982.025 920.21 838.975 600.593 544.037 727.63 768.284 
788.988 968.296 1081.75 866.568 940.148 986.432 896.432 858.42 787.333 
1119.32 1135.99 1098.48 1097.75 1092.17 1119.43 1081.3 1046.47 1071.67 
1038.49 1043.09 1060.48 1077.96 858.111 777.049 743.79 736.63 720.506 
924.012 1090.23 945.654 832.852 832.852 818.568 833.062 777.901 930.012 
906.84 1098.25 1184.83 1213.52 743.222 680.864 849 849 976.358 
966.444 1036.77 1038.42 1203.11 1280.96 1272.81 1345.21 1297.56 1026.9 
993.543 999.309 1012.53 1009.38 945.42 988.272 954.395 1041.2 1109.96 
805.667 720.395 644.938 671.395 677.815 696.519 740.012 875.765 605.432 
1330.26 1145.51 1328.44 1137.79 1123.99 1112.53 1093.86 1089.64 989.198 
876.728 893.901 793.691 794.79 858.778 918.099 1108.27 1009.98 1003.9 
1015.89 706.198 694.654 712.012 719.247 697.198 703.457 657.975 657.975 
632.741 624.84 750.235 779.827 831.062 936.21 923.753 982.864 735.667 
673.235 672.889 690.519 738.963 773.556 873.346 917.469 902.235 927.815 
874.877 938.889 968.926 990.58 1031.59 783.864 633.481 622.963 639.395 
633.79 650.556 643.222 629.988 814.679 829.42 875.062 449.173 560.926 
661 652.16 725.84 721.383 764.79 789.284 887.642 958.79 939.716 
898.272 1214.59 1183.21 1273.02 973.049 858.148 806.815 1097.64 1105.68 
1072.51 920.099 966.272 1029.46 983.519 923.21 861.765 830.642 798.704 
831.012 834.741 1028.57 996.84 928.062 833.593 882.494 869.469 759.062 
603.321 694.778 745.667 762.198 750.284 874.481 874.481 975.753 1028.91 
1117.75 1117.75 1238.89 1361.74 777.432 706.63 713.901 752.469 1249.72 
1189.3 1017.88 970.654 993.975 858.605 845.012 831.012 840.667 1301.31 
1193.53 1151.99 1113.99 1082 1169.75 1241.93 1115.56 1070.72 937 
947.333 1017.84 1020.23 896.309 884.469 887.185 957.309 884.654 878.642 
878.642 902.321 921.333 855.296 959.679 1036.06 1007.23 918.025 918.025 
866.136 760.395 727.926 750.062 979.272 991.864 940.605 926.21 877.42 
745.272 752.062 695.691 749.753 980.741 997.296 896.185 886.469 837.914 
805.346 935.84 1026.59 975.765 952.259 820.531 768.346 728.185 788.938 
746.704 820.136 859.111 889.852 917.63 839.691 712.407 658.63 676.235 
863.062 817.494 719.691 710.148 710.988 765.951 758.728 758.728 765.827 
836.148 836.148 786.457 786.457 749.84 718.938 716.333 767.556 
ch2_bckgrnd 1 359 double
465.679 485.074 485.012 439.877 463.432 547.099 457.025 589 363.63 
481.741 495.235 766.086 422.494 573.16 594.259 668.877 559.099 814.815 
1127.98 378.481 361.901 591.963 606.901 781.926 676.173 413.568 529.877 
1073.35 853.543 326.42 701.654 658.605 446.741 649.741 587.074 473.519 
637.642 345.901 495.938 524.605 623.691 577.42 408.16 512.346 768.099 
895.198 695.123 509.914 506.395 776.407 572.321 820.333 543.086 647.802 
282.753 240.432 312.988 410.667 538.506 663.753 376.864 483.605 452.185 
428.58 319.716 381.901 341.506 396.914 445.062 485.136 706.654 735.975 
782.741 775.765 717.605 622.877 638.605 420.198 491.926 505.062 460.42 
456.383 844.531 801.111 569.185 574.778 585.568 600.802 488.926 538.074 
776.407 753.444 669.716 657.494 630.667 643.321 699.58 837.79 834.37 
841.259 818.432 747.259 711.383 497 419.889 401.37 404.679 397.148 
565.457 1050.33 914.667 812.79 812.79 779.593 785.444 779.605 780.358 
775.395 856.84 887.049 868.37 561.037 583.136 672.519 672.519 815.543 
890.346 981.111 1041.22 897.025 807.309 832.383 841.926 790.432 835.296 
647.728 564.704 538.938 589.407 619.506 581.37 676 732.198 775.284 
630.642 591.741 538.765 558.395 537.148 562.494 575.025 629.432 430.012 
1092.31 715.889 799.642 851.025 669.494 758.284 702.728 744.802 584.395 
548.309 538.901 536.062 578.988 591.272 649.679 645.185 588.37 575.975 
579.753 406.123 389.802 423.123 371.222 422.432 396.593 401.259 401.259 
435.926 479.556 522.543 590.37 609.086 602.765 554.901 662.086 513.889 
506.025 554.765 504.864 502.58 549.222 584.062 508.358 631.852 609.272 
595.704 475.284 497.58 523.519 530.358 442.444 412.123 364.173 370.975 
361.198 367.691 382.481 464.593 501.901 496.531 473.407 302.963 346.58 
430.753 436.753 538.543 572.296 610.617 678.173 760.222 715.185 526.877 
498.519 917.099 998 946.716 574.395 543.086 498.605 593.506 593.679 
649.864 635.877 651.901 636.123 658.506 632.506 549.593 518.222 440.383 
451.716 429.062 686 654.617 627.099 610.049 614.247 611.79 509.864 
408.383 498.716 480.704 520.444 588.864 621.938 621.938 686.63 796.494 
820.605 820.605 1052.26 1148.47 496.444 508.42 478.827 457.099 853.506 
849.741 637.778 593.296 536.568 568.901 610.049 576.506 567.79 1113.46 
983.012 855.852 755.728 735.136 728.617 736.617 853.049 817.519 699.852 
664.63 634.037 675.37 601.21 619.716 577.593 573.716 586.457 614.494 
614.494 644.852 633.901 576.42 640.383 602.321 633.901 663.914 663.914 
644.309 574.222 557.704 583.556 645.926 643.975 549.173 524.309 490.395 
459.988 419.654 423.062 449.185 466.037 485.593 428.951 437.556 428.568 
426.728 659.16 518.728 485.136 471.605 517.395 467.877 435.247 425.123 
454.062 517 539.296 546.951 567.16 497.012 405.605 391.086 409.765 
533.235 439.877 407.617 385.58 389.543 435.012 475.852 475.852 504.346 
548.778 548.778 545.222 545.222 482.642 464.951 438.84 449 
normalized_dy 1 359 double
0.524069 0.367391 0.455976 0.692576 0.619112 0.490754 0.590242 0.400856 1 
0.903854 0.682324 0.416372 0.903489 0.344452 0.574015 0.28505 0.534733 0.423612 
0.150811 0.63686 0.448841 0.35629 0.626414 0.391156 0.470481 0.51195 0.424373 
0.100922 0.332053 0.260623 0.300207 0.353172 0.596245 0.313064 0.664765 0.200589 
0.534844 0.517784 0.396708 0.615609 0.37427 0.400787 0.279092 0.372349 0.3479 
0.197083 0.409549 0.301134 0.154884 0.357372 0.471425 0.326721 0.127874 0.205999 
0.393383 0.24767 0.649315 0.565188 0.511069 0.512438 0.234538 0.363491 0.42362 
0.350342 0.679825 0.257783 0.234087 0.248716 0.143448 0.154556 0.271178 0.290653 
0.232381 0.256056 0.298508 0.386074 0.254506 0.347434 0.0873603 0.356574 0.539929 
0.588285 0.120026 0.283904 0.422358 0.513399 0.552728 0.397899 0.609951 0.374725 
0.357372 0.410499 0.517057 0.540687 0.590689 0.597371 0.440988 0.202488 0.230893 
0.190721 0.222924 0.339272 0.416596 0.586513 0.686259 0.688285 0.66187 0.656979 
0.512134 0.0327171 0.0294113 0.0220154 0.0220154 0.0423723 0.0509216 0.000407089 0.156399 
0.138499 0.228753 0.272145 0.321824 0.263326 0.136949 0.213213 0.213213 0.160751 
0.0709041 0.0477859 0 0.276592 0.47402 0.427707 0.482922 0.518149 0.186646 
0.431541 0.621123 0.708894 0.575218 0.425265 0.565054 0.333373 0.341569 0.349345 
0.225369 0.17702 0.160654 0.164916 0.212777 0.193791 0.23292 0.316911 0.330248 
0.177362 0.484805 0.53401 0.273166 0.548134 0.377882 0.449803 0.374525 0.559253 
0.483881 0.531958 0.388681 0.301925 0.366024 0.334444 0.579416 0.578456 0.599684 
0.607179 0.596399 0.631137 0.551264 0.75615 0.525274 0.624449 0.5167 0.5167 
0.36527 0.245814 0.352603 0.260256 0.295263 0.447064 0.536758 0.391816 0.34925 
0.267917 0.173408 0.29791 0.380431 0.330663 0.400504 0.649395 0.346317 0.422644 
0.379068 0.786645 0.764004 0.719677 0.762244 0.622772 0.434136 0.573679 0.584076 
0.609119 0.620867 0.550423 0.288475 0.503357 0.541353 0.68451 0.390292 0.499556 
0.43205 0.398819 0.281867 0.211674 0.205225 0.133931 0.136963 0.276104 0.632337 
0.647072 0.26305 0.151417 0.279366 0.560343 0.468731 0.499303 0.685304 0.695759 
0.525207 0.361643 0.39 0.499451 0.399107 0.371799 0.458981 0.487017 0.656543 
0.67747 0.762578 0.403779 0.422608 0.388144 0.296867 0.353384 0.340902 0.39524 
0.386064 0.318339 0.445462 0.375746 0.222624 0.328734 0.328734 0.340812 0.236846 
0.293388 0.293388 0.144806 0.151513 0.457366 0.315702 0.396997 0.521854 0.375506 
0.323539 0.481472 0.513692 0.687756 0.411712 0.311922 0.357208 0.388679 0.137849 
0.174398 0.280443 0.383422 0.381636 0.489087 0.553863 0.249652 0.25125 0.274686 
0.344253 0.488998 0.412835 0.39692 0.345751 0.433243 0.53989 0.4111 0.347879 
0.347879 0.323274 0.366835 0.391264 0.403162 0.581312 0.47582 0.309986 0.309986 
0.279055 0.262914 0.247635 0.23164 0.417213 0.436633 0.575402 0.618645 0.636881 
0.500955 0.639204 0.520435 0.540316 0.890392 0.849653 0.878186 0.827284 0.770335 
0.715734 0.339741 0.789563 0.815515 0.821839 0.473361 0.518647 0.543452 0.690424 
0.520498 0.473721 0.479099 0.506371 0.499135 0.556672 0.6105 0.552349 0.525161 
0.499621 0.692576 0.617897 0.679148 0.665812 0.613997 0.480258 0.480258 0.41913 
0.423311 0.423311 0.358003 0.358003 0.447405 0.441497 0.510716 0.572757 
unscaled_dy 1 359 double
396.458 349.618 376.101 446.834 424.871 386.498 416.241 359.623 538.74 
509.996 443.769 364.261 509.887 342.76 411.389 325.002 399.646 366.426 
284.871 430.177 373.968 346.3 427.054 356.723 380.438 392.835 366.653 
269.956 339.054 317.7 329.533 345.367 418.035 333.377 438.519 299.752 
399.679 394.579 358.383 423.824 351.675 359.602 323.221 351.1 343.791 
298.704 362.222 329.81 286.088 346.623 380.72 337.46 278.014 301.369 
357.389 313.827 433.901 408.75 392.571 392.981 309.901 348.452 366.428 
344.521 443.022 316.851 309.766 314.14 282.669 285.99 320.855 326.677 
309.256 316.334 329.025 355.204 315.871 343.652 265.902 346.384 401.199 
415.655 275.667 324.659 366.051 393.268 405.026 358.739 422.133 351.811 
346.623 362.506 394.361 401.426 416.374 418.372 371.62 300.32 308.811 
296.802 306.429 341.212 364.328 415.126 444.945 445.551 437.654 436.192 
392.89 249.566 248.578 246.367 246.367 252.452 255.008 239.907 286.541 
281.19 308.172 321.144 335.996 318.507 280.726 303.526 303.526 287.842 
260.982 254.071 239.785 322.473 381.495 367.65 384.157 394.688 295.584 
368.796 425.472 451.712 411.749 366.92 408.711 339.449 341.899 344.223 
307.16 292.706 287.813 289.087 303.396 297.72 309.418 334.527 338.514 
292.808 384.72 399.43 321.449 403.652 352.755 374.256 351.751 406.976 
384.443 398.816 355.983 330.047 349.21 339.768 413.004 412.717 419.063 
421.304 418.081 428.466 404.588 465.84 396.818 426.467 394.255 394.255 
348.984 313.272 345.197 317.59 328.055 373.437 400.251 356.92 344.195 
319.88 291.626 328.846 353.517 338.638 359.517 433.925 343.318 366.136 
353.109 474.956 468.188 454.936 467.661 425.966 369.572 411.289 414.397 
421.884 425.396 404.337 326.026 390.266 401.625 444.423 356.465 389.129 
368.948 359.014 324.05 303.066 301.138 279.824 280.731 322.328 428.825 
433.23 318.425 285.052 323.303 407.302 379.914 389.054 444.66 447.785 
396.798 347.9 356.377 389.098 359.1 350.936 376.999 385.381 436.062 
442.318 467.761 360.497 366.126 355.822 328.535 345.431 341.699 357.944 
355.2 334.954 372.958 352.116 306.339 338.062 338.062 341.672 310.591 
327.495 327.495 283.075 285.081 376.517 334.166 358.469 395.796 352.044 
336.509 383.723 393.356 445.393 362.868 333.035 346.574 355.982 280.996 
291.922 323.625 354.411 353.877 386 405.365 314.42 314.897 321.904 
342.701 385.973 363.204 358.446 343.149 369.305 401.188 362.685 343.785 
343.785 336.429 349.452 356.755 360.312 413.571 382.034 332.457 332.457 
323.21 318.384 313.817 309.035 364.513 370.319 411.804 424.732 430.184 
389.548 430.878 395.371 401.315 505.972 493.793 502.323 487.105 470.08 
453.757 341.352 475.829 483.587 485.478 381.298 394.837 402.252 446.191 
395.39 381.406 383.014 391.167 389.004 406.205 422.297 404.912 396.784 
389.149 446.834 424.508 442.819 438.833 423.342 383.36 383.36 365.086 
366.336 366.336 346.812 346.812 373.539 371.772 392.466 411.013 
width_eqv 1 359 double
1.93684 2.01751 2.01725 1.82953 1.9275 2.27548 1.90085 2.44976 1.5124 
2.00365 2.05977 3.18629 1.75723 2.38388 2.47163 2.78198 2.32539 3.38896 
4.69145 1.57417 1.50521 2.46208 2.52421 3.25217 2.81232 1.7201 2.20385 
4.46424 3.55004 1.35764 2.91831 2.73926 1.85807 2.70239 2.44175 1.96945 
2.65207 1.43866 2.0627 2.18193 2.59404 2.40159 1.69761 2.13094 3.19466 
3.72329 2.89114 2.12082 2.10619 3.22922 2.38039 3.41191 2.25879 2.69433 
1.17602 1 1.30177 1.70804 2.23974 2.76067 1.56745 2.0114 1.88072 
1.78254 1.32976 1.5884 1.42039 1.65083 1.85109 2.01777 2.9391 3.06105 
3.25556 3.22655 2.98465 2.59065 2.65607 1.74768 2.04601 2.10064 1.91497 
1.89818 3.51255 3.33196 2.36734 2.3906 2.43548 2.49884 2.03353 2.23795 
3.22922 3.13371 2.78547 2.73463 2.62306 2.67569 2.90968 3.48452 3.4703 
3.49895 3.40401 3.10798 2.95877 2.06711 1.74639 1.66937 1.68313 1.65181 
2.35184 4.36852 3.80426 3.38054 3.38054 3.24246 3.2668 3.24252 3.24565 
3.22501 3.56375 3.6894 3.61171 2.33345 2.42537 2.79712 2.79712 3.39199 
3.70311 4.08062 4.33063 3.73089 3.35774 3.46203 3.50172 3.28755 3.47415 
2.69402 2.3487 2.24154 2.45145 2.57664 2.41802 2.8116 3.04534 3.22454 
2.62295 2.46116 2.24082 2.32246 2.23409 2.33951 2.39163 2.61792 1.7885 
4.54311 2.97751 3.32585 3.53956 2.78454 3.15384 2.92277 3.09777 2.4306 
2.28051 2.24139 2.22958 2.40811 2.4592 2.70213 2.68344 2.44714 2.39558 
2.4113 1.68914 1.62126 1.75985 1.54398 1.75697 1.6495 1.66891 1.66891 
1.81309 1.99456 2.17335 2.45546 2.5333 2.50701 2.30793 2.75374 2.13736 
2.10465 2.30737 2.09982 2.09032 2.28431 2.42922 2.11435 2.62798 2.53407 
2.47764 1.97679 2.06953 2.17741 2.20585 1.84021 1.71409 1.51466 1.54295 
1.50228 1.52929 1.59081 1.93232 2.0875 2.06516 1.96899 1.26008 1.44149 
1.79158 1.81653 2.2399 2.38028 2.53967 2.82064 3.1619 2.97458 2.19137 
2.07343 3.81438 4.15086 3.93756 2.38901 2.25879 2.07379 2.4685 2.46922 
2.7029 2.64472 2.71137 2.64575 2.73884 2.63071 2.28585 2.15538 1.83163 
1.87877 1.78454 2.8532 2.72267 2.60822 2.5373 2.55476 2.54454 2.12062 
1.69854 2.07425 1.99933 2.16462 2.44919 2.58675 2.58675 2.85582 3.31276 
3.41304 3.41304 4.37653 4.77669 2.0648 2.11461 1.99153 1.90116 3.54988 
3.53422 2.65263 2.46763 2.23168 2.36616 2.5373 2.39779 2.36154 4.63107 
4.08852 3.55964 3.14321 3.05756 3.03045 3.06372 3.54798 3.40021 2.91081 
2.76431 2.63707 2.80899 2.50054 2.57751 2.40231 2.38619 2.43918 2.55579 
2.55579 2.68205 2.63651 2.39743 2.66347 2.50516 2.63651 2.76134 2.76134 
2.67979 2.38829 2.31959 2.42711 2.68652 2.67841 2.28411 2.18069 2.03964 
1.91317 1.74542 1.75959 1.86824 1.93833 2.01967 1.78408 1.81987 1.78249 
1.77484 2.74157 2.15748 2.01777 1.96149 2.15194 1.94598 1.81027 1.76816 
1.88852 2.1503 2.24303 2.27487 2.35892 2.06716 1.68698 1.6266 1.70429 