# vtk DataFile Version 4.0
vtk output
ASCII
DATASET POLYDATA
POINTS 254 float
7.09489 7.58098 3.60864 6.91167 7.27833 3.6 7.095 6.875 3.6 
6.25167 7.60833 3.4 6.6 7.26 3.4 6.545 7.095 3.4 
6.6 6.875 3.4 7.095 6.655 3.4 6.82 6.49 3.4 
7.37 5.995 3.4 7.88857 7.24429 2.77143 7.60833 7.33333 3.06667 
5.59167 7.11333 3.13333 7.49833 5.75667 3.06667 7.755 6.27 3 
5.75667 6.47167 2.66667 7.7 5.94 2.8 7.425 5.544 2.44 
6.69167 5.35333 2.46667 7.71833 7.22333 2.13333 7.645 5.445 2.2 
7.755 5.335 2.2 6.96667 5.17 2.06667 6.80718 5.22615 2.10988 
7.38833 7.29667 1 7.32034 7.21567 0.903704 7.26072 7.15154 0.837037 
7.20504 7.09733 0.807407 7.15 7.05815 0.792593 7.095 7.05622 0.77037 
7.04011 7.08329 0.725926 6.98704 7.10907 0.681481 6.94407 7.15204 0.659259 
6.91829 7.20511 0.674074 6.89122 7.26 0.696296 6.89315 7.315 0.703704 
6.93226 7.36979 0.696296 6.98511 7.42081 0.703704 7.04 7.44992 0.733333 
7.095 7.43682 0.777778 7.15 7.42683 0.822222 7.20504 7.42292 0.874074 
7.26072 7.40817 0.925926 7.32034 7.36252 0.97037 7.46933 7.29774 1.13333 
7.53357 7.28517 1.27407 7.58986 7.289 1.43457 7.64357 7.2706 1.6321 
7.68933 7.25126 1.86914 6.87973 5.20527 2.05556 7.03467 5.18396 1.90123 
7.09428 5.21318 1.79753 7.14996 5.23907 1.76543 7.205 5.28204 1.78519 
7.26 5.33519 1.83852 7.315 5.39172 1.95556 7.37 5.45781 2.16148 
6.75383 5.28147 2.25556 7.03467 5.21104 2.33086 7.09428 5.23692 2.5679 
7.14996 5.26808 2.76543 7.205 5.29407 2.91111 7.25989 5.33704 3 
7.31296 5.39009 3.00148 7.35604 5.44457 2.9037 7.38386 5.4968 2.70222 
7.7 5.39 2.2 7.7 5.5 2.25926 7.755 5.555 2.2963 
7.80989 5.61 2.2963 7.86296 5.665 2.26667 7.90593 5.72 2.22963 
7.93182 5.775 2.20741 7.96104 5.83 2.2 7.97489 5.885 2.20741 
7.98671 5.94 2.23704 7.99992 5.995 2.31111 7.97081 6.05 2.42963 
7.91979 6.105 2.57778 7.865 6.16 2.72593 7.81 6.215 2.86667 
7.58785 5.46058 2.24444 7.51899 5.49895 2.32444 7.80622 7.22166 2.44303 
7.66434 7.24947 2.3679 7.63462 7.26143 2.6 7.60934 7.28127 2.8321 
6.61067 5.34238 2.42716 6.54643 5.34979 2.37531 6.49007 5.37811 2.29877 
6.435 5.40203 2.2 6.38011 5.43308 2.11111 6.32704 5.45907 2.05926 
6.28396 5.50204 2.05926 6.25604 5.55511 2.08148 6.21307 5.61 2.11852 
6.16204 5.665 2.15556 6.12101 5.72 2.20741 6.10511 5.775 2.26667 
6.09104 5.83 2.32593 6.06182 5.885 2.37037 6.03604 5.94 2.39259 
5.99511 5.995 2.4 5.95601 6.05 2.40741 5.94204 6.105 2.42963 
5.93796 6.16 2.47407 5.92399 6.215 2.52593 5.88486 6.27007 2.57284 
5.84314 6.32643 2.60494 5.81081 6.39067 2.63457 6.75967 5.43433 2.65679 
6.81918 5.49857 2.81975 6.87282 5.55493 2.94321 6.91399 5.61 3.04444 
6.92989 5.665 3.11852 6.94375 5.72 3.17037 6.96899 5.775 3.19259 
6.96899 5.83 3.2 6.94386 5.885 3.2 6.93193 5.94 3.2 
6.92796 5.995 3.20741 6.91399 6.05 3.22963 6.875 6.105 3.27407 
6.83601 6.16 3.32593 6.82204 6.215 3.37037 6.81807 6.27 3.39259 
6.80614 6.325 3.4 6.78111 6.38 3.4 6.78305 6.435 3.4 
7.4462 5.65652 2.75506 5.67578 6.53967 2.63457 5.61347 6.59928 2.61975 
5.56914 6.65496 2.6321 5.54318 6.71 2.67407 5.51396 6.765 2.72593 
5.50011 6.82 2.77037 5.48818 6.875 2.8 5.47311 6.93004 2.83457 
5.49166 6.98572 2.89877 5.52474 7.04534 3.00247 7.95189 7.12244 2.68889 
7.98548 7.04368 2.63175 8.01383 6.98518 2.60635 8.01399 6.93 2.59259 
7.98886 6.875 2.57037 7.97704 6.82 2.52593 7.97511 6.765 2.47407 
7.975 6.71 2.43704 7.97489 6.655 2.43704 7.97285 6.6 2.48148 
7.95899 6.545 2.56296 7.91989 6.49 2.66667 7.87886 6.435 2.77037 
7.85104 6.38 2.85926 7.80796 6.325 2.93333 7.68392 5.88507 2.89877 
7.64142 5.83143 2.97531 7.57922 5.78567 3.02716 5.80866 6.53967 2.89383 
5.82714 6.59928 3.0642 5.82986 6.65496 3.15802 5.83 6.71 3.19259 
5.82989 6.765 3.2 5.82785 6.82 3.2 5.81389 6.875 3.2 
5.77282 6.93004 3.19753 5.71918 6.98572 3.18765 5.65967 7.04534 3.16543 
7.7 6.28601 3.02963 7.645 6.32715 3.08148 7.59011 6.38011 3.16296 
7.53715 6.435 3.26667 7.49611 6.49 3.37037 7.48215 6.545 3.45185 
7.48 6.6 3.51111 7.47785 6.655 3.54815 7.46399 6.71 3.57778 
7.42511 6.765 3.59259 7.38815 6.82 3.59259 7.38805 6.875 3.57778 
7.42307 6.93 3.55556 7.45014 6.985 3.54815 7.43886 7.04 3.55556 
7.44101 7.095 3.57037 7.46833 7.15004 3.55062 7.49479 7.20572 3.4642 
7.54238 7.26534 3.29383 7.6924 7.35442 3.0515 7.77643 7.33198 2.95309 
7.46944 5.82467 3.22716 7.42572 5.88428 3.33827 7.38593 5.93996 3.38765 
5.65967 7.19433 3.2321 5.71928 7.25857 3.31358 5.77496 7.31493 3.3679 
5.83 7.37 3.39259 5.885 7.425 3.4 5.94 7.47989 3.4 
5.995 7.53296 3.39259 6.05007 7.57586 3.37778 6.10643 7.60038 3.36296 
6.17067 7.62037 3.37037 6.76511 6.545 3.37037 6.71215 6.6 3.36296 
6.67101 6.655 3.37778 6.65511 6.71 3.39259 6.64114 6.765 3.4 
6.61386 6.82 3.4 6.875 6.5291 3.4 6.93 6.545 3.4 
6.985 6.56101 3.4 7.04 6.60215 3.4 6.54715 7.15 3.4 
6.56101 7.205 3.4 6.55886 7.315 3.4 6.53103 7.36989 3.4 
6.48796 7.42296 3.4 6.43486 7.46607 3.4 6.37928 7.49468 3.4 
6.31966 7.54238 3.4 6.655 7.26 3.4 6.71007 7.26004 3.40741 
6.76643 7.26072 3.43704 6.83067 7.26534 3.5037 6.31966 7.68729 3.42222 
6.37928 7.7396 3.44444 6.43486 7.76889 3.45926 6.48796 7.81204 3.47407 
6.53103 7.86511 3.4963 6.55896 7.92 3.53333 6.60204 7.97489 3.56296 
6.65511 8.02785 3.56296 6.71 8.06899 3.52593 6.765 8.08489 3.47407 
6.82 8.09875 3.42963 6.875 8.12389 3.40741 6.93 8.12185 3.4 
6.98489 8.08274 3.40741 7.03796 8.02989 3.42963 7.08093 7.975 3.47407 
7.10682 7.92 3.52593 7.13582 7.865 3.57037 7.14592 7.80986 3.59383 
7.13593 7.75221 3.6037 7.10886 7.68002 3.60741 7.095 6.93 3.6 
7.09489 6.985 3.6 7.09285 7.04 3.6 7.07885 7.09504 3.6 
7.03714 7.15072 3.6 6.97956 7.21034 3.6 6.97956 7.3594 3.60123 
7.03714 7.42507 3.6037 7.07896 7.49196 3.60741 
LINES 28 315
21 24 25 26 27 28 29 30 31 32 33 34 35 36 37 38 39 40 41 42 43 24 
7 24 44 45 46 47 48 19 
9 22 50 51 52 53 54 55 56 17 
10 22 58 59 60 61 62 63 64 65 17 
3 21 66 20 
16 20 67 68 69 70 71 72 73 74 75 76 77 78 79 80 14 
4 20 81 82 17 
3 19 83 10 
5 19 84 85 86 11 
25 18 87 88 89 90 91 92 93 94 95 96 97 98 99 100 101 102 103 104 105 106 107 108 109 15 
21 18 110 111 112 113 114 115 116 117 118 119 120 121 122 123 124 125 126 127 128 8 
3 17 129 13 
12 15 130 131 132 133 134 135 136 137 138 139 12 
17 10 140 141 142 143 144 145 146 147 148 149 150 151 152 153 154 14 
5 16 155 156 157 13 
12 15 158 159 160 161 162 163 164 165 166 167 12 
21 14 168 169 170 171 172 173 174 175 176 177 178 179 180 181 182 183 184 185 186 11 
4 11 187 188 10 
5 13 189 190 191 9 
12 12 192 193 194 195 196 197 198 199 200 201 3 
8 8 202 203 204 205 206 207 6 
6 8 208 209 210 211 7 
4 5 212 213 4 
8 4 214 215 216 217 218 219 3 
6 4 220 221 222 223 1 
8 2 245 246 247 248 249 250 1 
5 22 49 23 57 18 
27 3 224 225 226 227 228 229 230 231 232 233 234 235 236 237 238 239 240 241 242 243 244 0 253 252 251 1 

POINT_DATA 254
FIELD FieldData 7
vox_ch1 1 254 double
3362.64 3113.95 3016.83 3190.57 3154.75 3014.79 2910.38 3171.07 3092.7 
3057.32 4069.99 3757.06 3247.69 3657.65 3497.57 3591.89 3546.83 4229.53 
3540.72 3993.47 4119.06 3684 3736.94 3678.33 3555.95 3534.25 3421.96 
3358.99 3265.91 3151.06 3216.1 3271.2 3333.64 3187.23 3251.56 3290.07 
3397.16 3470.19 3339.37 3330.9 3465.07 3549.46 3490.68 3526.94 3505.44 
3437.65 3469.19 3649.98 3868.47 3731.52 3682.83 3641.41 3610.19 3572.04 
3700.6 3909.63 3905.01 3623.02 3592.88 3416.46 3261.09 3319.2 3464.2 
3650.2 3787.65 3978.44 3797.9 4091.54 3958.84 3916.41 3829.09 3689.09 
3697.74 3697.74 3812.91 3859.62 3898.49 3842.6 3775.4 3701.48 3606.2 
4132.72 4152.9 4115.62 3989.41 3849.42 3922.59 3467.47 3462.84 3560.68 
3670.81 3782.74 3839.44 3819.68 3765.67 3699.73 3635.85 3611.14 3829.67 
3644.77 3857.91 3873.94 3873.94 3962.56 4033.15 3911.09 3997.23 3892.57 
3848.06 3789.93 3388.46 3309.41 3236.09 3107.57 3086.96 3115.27 3135.89 
3135.89 3208.68 3260.53 3220.9 3252.6 3112.52 3092.2 3085.02 3013.38 
3050.32 3077.81 3077.81 4139.36 3531.83 3393.04 3341.46 3423.81 3368.73 
3448.68 3295.8 3293.26 3226.85 3265.25 3759.33 3581.35 3450.32 3272.77 
3348.52 3401.21 3438.36 3311.23 3308.04 3242.33 3206.09 3208.69 3300.4 
3278.64 3483.64 3575.42 3551.47 3568.54 3619.16 3517.72 3365.23 3339.78 
3339.78 3318.79 3318.79 3296.78 3378.3 3347 3402.3 3370.63 3311.8 
3292.01 3289.72 3383.91 3359.7 3391.96 3349.86 3349.86 3362.88 3362.88 
3443.63 3519.89 3519.89 3551.54 3583.63 3610.36 3631.96 3874.53 4002.54 
3372.9 3194.19 3097.67 3243.84 3200.48 3188.63 3250.93 3216 3228.01 
3166.04 3148.31 3128.41 3158.14 3052.9 3033.8 3040.75 3026.96 2982.46 
2966.74 3089.7 3080.69 3188.1 3152.81 3080.32 3080.32 3153.04 3135.73 
3110.85 3094.46 3140.28 3222.99 3102.14 3085.3 3087.25 3116.72 3110.31 
3048.14 2994.6 2935.56 2941.42 2920.35 2982.77 2986.28 2981.02 3005.81 
3055.7 3057.77 3082.53 3080.74 3105.85 3161.1 3207.95 3222.35 3233.77 
3262.53 3344.04 3062.4 3207.36 3207.36 3336.27 3292.78 3207.32 3181.01 
3261.42 3372.88 
vox_ch2 1 254 double
3566.47 3374.4 3124.21 3244.65 3145.06 2913.16 2753.21 3181.27 3109.9 
3135.47 4029.77 3985.17 3820.23 3672.91 3614.93 4016.41 3784.6 4475.7 
4049.42 4690.38 4292.47 3452.79 3964.4 4315.23 4193.3 4046.02 3877.43 
3870.02 3778.91 3715.28 3872.91 4021.75 4196.85 4072.63 4062.52 3994.77 
4004.17 3850.64 3630.64 3632.16 3643.26 3852.58 3845.37 4084.51 4244.57 
4411.3 4593.89 4838.81 5033.54 4098.4 3858.57 3747.53 3740.47 3808.69 
4087.88 4297.91 4528.01 4288.62 3816.53 3707.12 3515.4 3583.23 3710.01 
3843.33 3868.25 4128.05 3947.54 4217.14 3708.01 3700.46 3521.11 3446.58 
3630.69 3630.69 3932.31 3780.88 3770.84 3831.85 3776.6 3862.7 3730.48 
4319.38 4331.59 4461.1 4793.31 4571.95 4477.83 4061.93 4048.84 3977.07 
3988.93 4032.09 4122.12 4089.98 4025.47 4060.28 4045.88 4121.84 4129.23 
4244.4 4165.64 4290.44 4290.44 4255.23 4127.95 4210.16 4007.88 4036.38 
3954.64 3978.35 3791.23 3532.64 3329.6 3177.31 3185.46 3124.88 3091.88 
3091.88 3037.85 3001.36 2999.93 2981.16 3007.74 2999.49 2994.44 2976.09 
2977.62 3049.05 3049.05 4136.79 4027.4 4000.98 3976.79 3940.41 3911.44 
3889 3838.51 3811.52 3808.91 3883.94 4003.49 3788.57 3745.4 3602.11 
3557.06 3591.57 3490.8 3594.04 3509.73 3295.96 3258.4 3167.19 3174.33 
3224.19 3553.37 3709.11 3603.28 3640 3924.81 3785.36 3601.31 3530.17 
3530.17 3389.53 3389.53 3415.31 3623.93 3807.06 3604.69 3449.42 3264.14 
3271.59 3255.25 3168.11 3128.42 3121.69 3073.62 3073.62 3177.54 3177.54 
3254.11 3417.9 3417.9 3557.89 3706.9 3809.35 3902.63 3967.11 3784.26 
3541.17 3334.27 3225.31 3734.67 3534.56 3428.06 3417.78 3339.49 3264 
3275.33 3192.81 3169.06 3209.22 3087.81 3077.1 2918.25 2828.57 2852.07 
2742.23 3160.11 3172.7 3310.07 3246.6 3099.64 3099.64 3127.11 3103.77 
3049.95 3062.52 3139.37 3225.9 3095.01 3081.1 3129.33 3223.06 3220.15 
3206.21 3242.67 3257.3 3231.86 3140.98 3136.96 3135.8 3205.93 3236.65 
3288.31 3286.11 3293.28 3317.89 3300.35 3269.56 3115.52 3202.74 3225.11 
3305.58 3395.54 3177.28 3371.93 3371.93 3493.23 3492.8 3464.3 3363.77 
3447.89 3551.53 
background_sub_ch2 1 254 double
1270.6 1078.52 828.339 948.783 849.191 617.289 457.339 885.401 814.03 
839.598 1733.89 1689.3 1524.36 1377.04 1319.05 1720.54 1488.73 2179.83 
1753.55 2394.51 1996.6 1156.92 1668.52 2019.36 1897.43 1750.15 1581.56 
1574.15 1483.04 1419.41 1577.04 1725.88 1900.98 1776.76 1766.65 1698.89 
1708.3 1554.77 1334.77 1336.29 1347.39 1556.71 1549.5 1788.64 1948.7 
2115.43 2298.02 2542.94 2737.67 1802.52 1562.7 1451.66 1444.6 1512.82 
1792.01 2002.04 2232.14 1992.75 1520.66 1411.25 1219.52 1287.36 1414.14 
1547.46 1572.38 1832.18 1651.67 1921.26 1412.14 1404.59 1225.24 1150.71 
1334.82 1334.82 1636.44 1485.01 1474.97 1535.98 1480.73 1566.83 1434.61 
2023.51 2035.72 2165.23 2497.44 2276.08 2181.96 1766.05 1752.97 1681.2 
1693.05 1736.22 1826.25 1794.1 1729.6 1764.41 1750.01 1825.97 1833.36 
1948.52 1869.77 1994.57 1994.57 1959.36 1832.08 1914.29 1712.01 1740.51 
1658.77 1682.47 1495.36 1236.77 1033.73 881.438 889.586 829.006 796.006 
796.006 741.981 705.487 704.055 685.289 711.87 703.623 698.573 680.215 
681.746 753.178 753.178 1840.92 1731.52 1705.1 1680.92 1644.54 1615.57 
1593.13 1542.64 1515.65 1513.04 1588.07 1707.62 1492.7 1449.52 1306.24 
1261.19 1295.7 1194.93 1298.17 1213.86 1000.09 962.524 871.314 878.462 
928.314 1257.5 1413.24 1307.41 1344.13 1628.94 1489.49 1305.44 1234.3 
1234.3 1093.66 1093.66 1119.44 1328.05 1511.19 1308.82 1153.55 968.265 
975.722 959.376 872.24 832.549 825.82 777.746 777.746 881.672 881.672 
958.24 1122.03 1122.03 1262.02 1411.03 1513.47 1606.76 1671.24 1488.39 
1245.3 1038.4 929.438 1438.8 1238.68 1132.19 1121.91 1043.62 968.129 
979.462 896.944 873.191 913.351 791.944 781.228 622.376 532.697 556.203 
446.364 864.24 876.833 1014.2 950.734 803.771 803.771 831.24 807.894 
754.08 766.648 843.499 930.03 799.141 785.228 833.462 927.191 924.277 
910.339 946.796 961.425 935.993 845.104 841.092 839.931 910.055 940.783 
992.438 990.24 997.413 1022.02 1004.47 973.685 819.648 906.87 929.24 
1009.71 1099.67 881.413 1076.05 1076.05 1197.36 1196.93 1168.43 1067.89 
1152.02 1255.66 
background_sub_ch1 1 254 double
1044.29 795.596 698.472 872.213 836.398 696.435 592.028 852.719 774.349 
738.966 1751.63 1438.71 929.336 1339.3 1179.21 1273.53 1228.47 1911.18 
1222.36 1675.11 1800.71 1365.65 1418.58 1359.98 1237.6 1215.89 1103.61 
1040.63 947.559 832.707 897.744 952.843 1015.29 868.88 933.201 971.719 
1078.81 1151.83 1021.02 1012.55 1146.72 1231.1 1172.32 1208.58 1187.09 
1119.3 1150.83 1331.62 1550.11 1413.16 1364.47 1323.05 1291.83 1253.68 
1382.25 1591.27 1586.66 1304.67 1274.52 1098.1 942.731 1000.84 1145.84 
1331.84 1469.3 1660.09 1479.55 1773.19 1640.48 1598.05 1510.73 1370.73 
1379.39 1379.39 1494.56 1541.26 1580.14 1524.25 1457.04 1383.13 1287.84 
1814.36 1834.55 1797.26 1671.05 1531.06 1604.24 1149.11 1144.48 1242.32 
1352.46 1464.39 1521.09 1501.32 1447.31 1381.37 1317.5 1292.78 1511.31 
1326.41 1539.56 1555.58 1555.58 1644.2 1714.79 1592.73 1678.88 1574.21 
1529.71 1471.57 1070.1 991.052 917.731 789.213 768.608 796.917 817.534 
817.534 890.324 942.176 902.546 934.25 794.164 773.843 766.67 695.028 
731.966 759.46 759.46 1821 1213.47 1074.68 1023.1 1105.46 1050.37 
1130.32 977.447 974.904 908.497 946.892 1440.98 1262.99 1131.97 954.41 
1030.16 1082.85 1120 992.88 989.682 923.978 887.731 890.336 982.04 
960.287 1165.29 1257.06 1233.11 1250.19 1300.81 1199.36 1046.88 1021.42 
1021.42 1000.44 1000.44 978.423 1059.94 1028.65 1083.94 1052.27 993.447 
973.657 971.361 1065.56 1041.35 1073.61 1031.51 1031.51 1044.52 1044.52 
1125.27 1201.53 1201.53 1233.19 1265.27 1292 1313.61 1556.18 1684.19 
1054.55 875.83 779.312 925.485 882.126 870.275 932.571 897.645 909.657 
847.682 829.954 810.052 839.781 734.546 715.447 722.398 708.608 664.102 
648.386 771.349 762.336 869.744 834.46 761.966 761.966 834.682 817.373 
792.497 776.102 821.929 904.633 783.781 766.941 768.892 798.361 791.954 
729.781 676.25 617.201 623.065 601.991 664.41 667.929 662.67 687.46 
737.349 739.41 764.176 762.386 787.497 842.744 889.596 903.991 915.41 
944.176 1025.68 744.04 889.003 889.003 1017.92 974.423 888.966 862.657 
943.065 1054.52 
width_equivalent 1 254 double
2.84655 2.41625 1.85575 2.12558 1.90246 1.38293 1.02459 1.98359 1.82369 
1.88097 3.88449 3.78459 3.41507 3.08502 2.95511 3.85456 3.33525 4.88354 
3.92852 5.36449 4.47303 2.59188 3.73804 4.52403 4.25085 3.92092 3.54321 
3.52662 3.3225 3.17995 3.53309 3.86654 4.25882 3.98052 3.95787 3.80608 
3.82715 3.48319 2.99032 2.99372 3.01859 3.48754 3.47138 4.00713 4.36572 
4.73924 5.14831 5.69702 6.13328 4.03824 3.50095 3.25219 3.23637 3.38921 
4.01468 4.48523 5.00072 4.4644 3.40677 3.16167 2.73213 2.88411 3.16814 
3.46682 3.52263 4.10468 3.70028 4.30426 3.16366 3.14673 2.74494 2.57796 
2.99043 2.99043 3.66615 3.3269 3.30441 3.4411 3.31733 3.51022 3.214 
4.53333 4.56068 4.85082 5.59508 5.09916 4.88829 3.95654 3.92722 3.76644 
3.793 3.88969 4.0914 4.01938 3.87486 3.95286 3.92058 4.09077 4.10733 
4.36533 4.1889 4.4685 4.4685 4.38961 4.10446 4.28863 3.83545 3.89931 
3.71619 3.76929 3.3501 2.77077 2.3159 1.97471 1.99296 1.85724 1.78331 
1.78331 1.66228 1.58052 1.57731 1.53527 1.59482 1.57634 1.56503 1.5239 
1.52733 1.68737 1.68737 4.12426 3.87918 3.81999 3.76581 3.6843 3.61941 
3.56913 3.45601 3.39554 3.38971 3.55779 3.82563 3.34413 3.24741 2.9264 
2.82548 2.90278 2.67704 2.90832 2.71944 2.24053 2.15637 1.95203 1.96804 
2.07973 2.81721 3.16612 2.92903 3.01129 3.64937 3.33694 2.92461 2.76524 
2.76524 2.45015 2.45015 2.50791 2.97528 3.38556 2.93218 2.58433 2.16923 
2.18593 2.14932 1.9541 1.86518 1.85011 1.74241 1.74241 1.97523 1.97523 
2.14677 2.51371 2.51371 2.82733 3.16117 3.39068 3.59966 3.74412 3.33448 
2.78988 2.32636 2.08224 3.22337 2.77506 2.53648 2.51344 2.33806 2.16892 
2.19432 2.00945 1.95623 2.0462 1.77421 1.75021 1.39433 1.19341 1.24608 
1 1.93618 1.96439 2.27215 2.12995 1.80071 1.80071 1.86225 1.80995 
1.68938 1.71754 1.88971 2.08357 1.79034 1.75917 1.86723 2.07721 2.07068 
2.03946 2.12113 2.15391 2.09693 1.89331 1.88432 1.88172 2.03882 2.10766 
2.22338 2.21846 2.23453 2.28965 2.25035 2.18137 1.83628 2.03168 2.0818 
2.26208 2.46362 1.97465 2.41071 2.41071 2.68248 2.68152 2.61765 2.39243 
2.5809 2.81309 
norm_scaled 1 254 double
0.345445 0.258046 0.367586 0.446538 0.514659 0.663355 0.835933 0.491986 0.479703 
0.405904 0.54091 0.376342 0.125191 0.501848 0.420268 0.260667 0.348863 0.402387 
0.215919 0.218499 0.428471 0.717529 0.374832 0.191417 0.169396 0.213486 0.216664 
0.178554 0.155571 0.101322 0.083266 0.0654494 0.0467644 0 0.0406897 0.0860823 
0.147869 0.261331 0.286343 0.278863 0.375731 0.313221 0.277673 0.193734 0.124688 
0.0416036 0.0122123 0.0359371 0.0801094 0.306118 0.39865 0.43835 0.420544 0.352522 
0.292991 0.317362 0.230183 0.171948 0.362311 0.300008 0.294745 0.299315 0.333395 
0.385688 0.46226 0.432816 0.42214 0.450307 0.698107 0.67324 0.772111 0.728728 
0.564942 0.564942 0.440315 0.569609 0.604292 0.522367 0.513687 0.408614 0.42412 
0.423025 0.427734 0.353925 0.18689 0.190594 0.255512 0.167753 0.170054 0.259373 
0.321516 0.36781 0.356878 0.360933 0.360914 0.304994 0.273802 0.227251 0.34799 
0.198948 0.347011 0.30188 0.30188 0.363362 0.463855 0.355965 0.510212 0.431135 
0.449544 0.400201 0.235155 0.324104 0.413834 0.421708 0.389158 0.490122 0.558361 
0.558361 0.73778 0.878474 0.822878 0.907321 0.650266 0.633864 0.631458 0.552892 
0.606742 0.538948 0.538948 0.519066 0.219793 0.146589 0.124154 0.190102 0.167222 
0.22881 0.150064 0.160031 0.115631 0.111283 0.36824 0.370589 0.302933 0.250765 
0.340186 0.359814 0.465217 0.286235 0.338631 0.451309 0.449651 0.55295 0.652659 
0.566037 0.454191 0.415607 0.471316 0.457761 0.321235 0.328147 0.324743 0.351304 
0.351304 0.441829 0.441829 0.399561 0.320776 0.198906 0.351979 0.439181 0.557285 
0.528098 0.543258 0.760307 0.790571 0.841687 0.868909 0.868909 0.721981 0.721981 
0.711197 0.603829 0.603829 0.506585 0.423091 0.378428 0.340947 0.458841 0.666818 
0.371322 0.367816 0.362663 0.160041 0.231558 0.290212 0.35515 0.385129 0.467613 
0.390663 0.452782 0.455252 0.446698 0.455076 0.442909 0.697079 0.873005 0.731619 
1 0.418746 0.394777 0.382472 0.40337 0.476316 0.476316 0.53459 0.54247 
0.583165 0.543091 0.503754 0.501952 0.510345 0.506125 0.449892 0.386094 0.381716 
0.324453 0.233741 0.158721 0.183326 0.231744 0.312289 0.317769 0.248181 0.250844 
0.263543 0.267415 0.28761 0.26665 0.306115 0.390729 0.618859 0.526998 0.514848 
0.462936 0.460466 0.368546 0.34989 0.34989 0.374759 0.337366 0.282075 0.330839 
0.342056 0.364052 
norm_unscaled 1 254 double
366.86 329.269 376.383 410.34 439.639 503.594 577.82 429.888 424.605 
392.864 450.93 380.149 272.128 434.129 399.042 330.396 368.33 391.351 
311.15 312.26 402.57 526.894 379.499 300.612 291.141 310.104 311.471 
295.08 285.195 261.862 254.096 246.433 238.396 218.283 235.784 255.307 
281.882 330.682 341.44 338.223 379.886 353 337.711 301.608 271.912 
236.177 223.536 233.74 252.738 349.945 389.743 406.819 399.16 369.904 
344.299 354.781 317.285 292.238 374.114 347.317 345.053 347.019 361.677 
384.168 417.102 404.438 399.847 411.961 518.541 507.845 550.37 531.711 
461.266 461.266 407.664 463.273 478.191 442.955 439.221 394.029 400.698 
400.227 402.253 370.507 298.665 300.258 328.179 290.434 291.423 329.84 
356.568 376.479 371.777 373.521 373.513 349.462 336.046 316.024 367.955 
303.851 367.533 348.122 348.122 374.566 417.788 371.384 437.727 403.715 
411.633 390.41 319.424 357.681 396.274 399.661 385.661 429.086 458.436 
458.436 535.604 596.117 572.205 608.524 497.964 490.909 489.875 456.084 
479.244 450.086 450.086 441.535 312.817 281.331 271.682 300.046 290.206 
316.695 282.826 287.113 268.016 266.146 376.664 377.674 348.575 326.138 
364.598 373.04 418.374 341.393 363.929 412.392 411.679 456.108 498.993 
461.737 413.632 397.037 420.997 415.167 356.447 359.42 357.956 369.38 
369.38 408.315 408.315 390.135 356.25 303.833 369.67 407.176 457.973 
445.419 451.94 545.293 558.31 580.295 592.003 592.003 528.809 528.809 
524.171 477.992 477.992 436.167 400.255 381.046 364.925 415.632 505.083 
377.99 376.482 374.265 287.117 317.877 343.104 371.034 383.928 419.405 
386.308 413.026 414.088 410.409 414.013 408.779 518.099 593.765 532.954 
648.386 398.387 388.078 382.785 391.774 423.148 423.148 448.212 451.601 
469.104 451.868 434.949 434.174 437.784 435.969 411.783 384.343 382.46 
357.831 318.816 286.549 297.132 317.957 352.6 354.957 325.026 326.172 
331.634 333.299 341.985 332.97 349.944 386.337 484.456 444.946 439.72 
417.393 416.331 376.795 368.772 368.772 379.468 363.385 339.604 360.578 
365.402 374.863 
