# vtk DataFile Version 4.0
vtk output
ASCII
DATASET POLYDATA
POINTS 335 float
7.73667 5.53667 4.8 7.755 5.17 4.8 5.995 3.74 4.8 
7.04 6.27 4.6 7.535 6.05 4.6 5.83 3.575 4.6 
8.03 5.775 4.4 8.14 5.665 4.4 7.4525 8.0025 4.1 
7.59 7.865 4.12 7.59 7.535 4 6.71 6.545 4 
6.16 6.545 4 6.27 5.665 4 6.105 5.335 4 
7.788 7.92 3.64 7.095 7.59 3.8 7.70451 7.21897 3.40185 
7.37 6.27 3.8 7.04 9.845 3.6 7.27375 7.82375 3.375 
7.93833 7.77333 3.46667 5.39 4.18 3.6 7.755 8.085 3.4 
7.37 7.48 3.4 6.765 7.26 3.4 7.095 7.095 3.4 
7.315 7.04 3.4 7.095 6.93 3.4 5.665 6.215 3.4 
8.23593 8.32315 3.1 8.085 7.645 3.2 7.35625 7.645 3 
7.37 7.425 3 6.94833 7.38833 3 7.95667 8.43333 2.8 
8.03 7.535 2.8 7.3975 8.48833 2.33333 7.535 8.305 2.6 
7.26 7.315 2.6 6.93 8.195 2.4 5.775 5.39 2.4 
7.755 8.91 2.2 7.755 8.745 2 7.37 7.15 2 
7.31715 7.205 2.2 7.27601 7.26 2.4 7.51099 8.56729 2.19506 
7.58678 8.6196 2.10617 7.64484 8.64889 2.0642 7.7 8.69204 2.03704 
7.755 8.8 2.0963 7.755 8.855 2.16296 7.81 8.69 2.13333 
7.86486 8.63493 2.27407 7.91714 8.57857 2.42963 7.95366 8.51433 2.60741 
5.83 5.39 2.4 5.885 5.39 2.4 5.94 5.39011 2.4 
5.995 5.39204 2.4 6.05 5.40396 2.4 6.105 5.43104 2.39259 
6.16 5.44296 2.37037 6.215 5.44489 2.32593 6.27 5.445 2.27407 
6.325 5.445 2.22963 6.38 5.44489 2.2 6.435 5.44296 2.17037 
6.49 5.43114 2.12593 6.545 5.40601 2.08148 6.6 5.40601 2.05185 
6.655 5.43125 2.05185 6.71 5.445 2.05185 6.765 5.45875 2.04444 
6.82 5.4841 2.02222 6.875 5.48614 2.01481 6.93 5.47497 2.02963 
6.985 5.50408 2.07407 7.04 5.55307 2.13333 7.095 5.59399 2.2 
7.15 5.60989 2.26667 7.205 5.62396 2.32593 7.26 5.65318 2.37778 
7.315 5.67907 2.42963 7.36989 5.72204 2.5037 7.42296 5.77511 2.60741 
7.46604 5.83 2.72593 7.49386 5.885 2.84444 7.53479 5.94 2.95556 
7.57185 5.995 3.07407 7.57174 6.05 3.2 7.53274 6.105 3.33333 
7.47989 6.16 3.47407 7.425 6.215 3.62963 6.97114 8.25 2.4 
6.99896 8.305 2.4 7.04204 8.36 2.4 7.09511 8.41489 2.4 
7.15016 8.46778 2.39753 7.20822 8.50745 2.38765 7.28401 8.51218 2.36543 
6.985 8.15386 2.4 7.04 8.12603 2.40741 7.095 8.08296 2.43704 
7.14992 8.02981 2.525 7.20339 7.97339 2.70648 7.248 7.908 3.00185 
6.87704 8.14 2.4 6.83407 8.085 2.40741 6.80818 8.03 2.42963 
6.77907 7.975 2.47407 6.76704 7.92 2.51852 6.76511 7.865 2.54815 
6.765 7.81 2.54815 6.76511 7.755 2.54815 6.76704 7.7 2.56296 
6.77907 7.645 2.61481 6.80822 7.58993 2.6963 6.83479 7.53357 2.8 
6.88238 7.46933 2.9037 7.47205 8.3812 2.4716 7.31285 7.35614 2.7037 
7.35399 7.38386 2.83704 7.205 7.35399 2.72593 7.14993 7.36789 2.83704 
7.09357 7.37061 2.91852 7.02933 7.37534 2.97037 7.59 8.3209 2.6 
7.645 8.36 2.63704 7.7 8.39899 2.7037 7.75507 8.41289 2.76296 
7.81143 8.41561 2.79259 7.87567 8.42034 2.8 7.49805 8.25 2.57037 
7.49611 8.195 2.52593 7.52114 8.14 2.47407 7.53296 8.085 2.42963 
7.53489 8.03 2.41481 7.535 7.975 2.42963 7.53489 7.92 2.47407 
7.53272 7.86489 2.54074 7.5162 7.80785 2.64444 7.45784 7.73899 2.8 
8.0691 7.59 3 7.3382 7.74308 3.17315 8.02477 8.38132 2.83333 
8.08632 8.36217 2.89259 8.15393 8.35297 2.98519 6.88033 7.33419 3.13333 
6.82072 7.30186 3.26667 7.36946 7.48215 2.94074 7.366 7.55101 2.94074 
7.3932 7.4409 3.2 7.34282 7.5509 3.2 7.315 7.71987 3.19537 
8.14 7.7 3.36296 8.19489 7.755 3.4963 8.24796 7.81 3.58519 
8.29093 7.865 3.63704 8.31682 7.92 3.65185 8.34593 7.975 3.63704 
8.35796 8.03 3.59259 8.35979 8.085 3.52593 8.35785 8.14008 3.44074 
8.34378 8.19645 3.33704 8.30081 8.25884 3.22222 8.0194 7.7053 3.3358 
5.61204 6.19899 3.37037 5.56907 6.15785 3.32593 5.54318 6.10489 3.27407 
5.51396 6.05 3.22963 5.5 5.995 3.20741 5.48614 5.94 3.2 
5.45896 5.885 3.2 5.44693 5.83 3.2 5.44307 5.775 3.19259 
5.43093 5.72 3.17037 5.40192 5.665 3.12593 5.37797 5.61 3.07407 
5.34703 5.555 3.03704 5.32308 5.5 3.03704 5.29396 5.445 3.07407 
5.28 5.39 3.12593 5.26625 5.335 3.16296 5.24101 5.28 3.17037 
5.24101 5.225 3.14815 5.26625 5.17 3.11852 5.28 5.115 3.08148 
5.29386 5.06 3.05926 5.32104 5.005 3.05185 5.33296 4.95 3.08148 
5.33478 4.895 3.13333 5.33296 4.84 3.2 5.32104 4.785 3.27407 
5.29407 4.73 3.35556 5.28408 4.675 3.44444 5.29418 4.62 3.52593 
5.32308 4.565 3.59259 5.34692 4.51 3.64444 5.37593 4.455 3.67407 
5.38785 4.4 3.6963 5.38796 4.345 3.6963 5.37818 4.29 3.68889 
5.36486 4.235 3.65185 7.095 6.985 3.4 7.095 7.04 3.4 
7.33101 7.09285 3.42963 7.37215 7.13378 3.42222 7.42511 7.1457 3.37037 
7.48 7.13399 3.2963 7.535 7.09715 3.23704 7.58992 7.07212 3.22037 
7.64333 7.0994 3.2463 7.68687 7.15226 3.31481 7.70083 7.30103 3.50741 
7.68641 7.36796 3.61667 7.65684 7.42489 3.73889 7.63104 7.48 3.86667 
7.425 7.48011 3.57037 7.48 7.48215 3.72593 7.535 7.49601 3.86667 
7.86394 7.8544 3.54025 7.76454 8.0141 3.51556 7.17216 7.759 3.55 
7.1138 7.70054 3.68426 7.09728 7.64503 3.76204 7.86394 7.8312 3.56247 
7.36603 7.91603 3.73981 7.095 9.79 3.6963 7.15 9.735 3.76296 
7.20489 9.68 3.79259 7.25796 9.625 3.80741 7.30093 9.57 3.82963 
7.32682 9.515 3.87407 7.35604 9.46 3.92593 7.37 9.405 3.97778 
7.38386 9.35 4.02222 7.41104 9.295 4.07407 7.42296 9.24 4.11852 
7.42489 9.185 4.14074 7.42489 9.13 4.11852 7.42296 9.075 4.08148 
7.41114 9.02 4.06667 7.3859 8.965 4.11111 7.38407 8.91 4.2 
7.39911 8.855 4.28889 7.39396 8.8 4.34074 7.40104 8.745 4.34815 
7.39589 8.69 4.34074 7.41104 8.635 4.33333 7.41114 8.58 4.33333 
7.39782 8.525 4.34074 7.41308 8.47 4.36296 7.42307 8.415 4.4 
7.425 8.36 4.44444 7.42704 8.305 4.48148 7.43896 8.25 4.51111 
7.46598 8.19495 4.50741 7.47688 8.13893 4.44815 7.47189 8.077 4.3037 
7.31704 6.325 3.8 7.27396 6.38 3.8 7.24604 6.435 3.8 
7.20296 6.49 3.8 7.14989 6.54489 3.8 7.095 6.59796 3.79259 
7.04 6.64093 3.77037 6.985 6.66671 3.72593 6.93 6.69378 3.68148 
6.875 6.69185 3.66667 6.82 6.65274 3.71852 6.765 6.59989 3.83704 
7.41114 6.215 4 7.43896 6.16 4.2 7.48204 6.105 4.4 
7.69364 7.9041 3.88444 6.14604 5.39 3.97037 6.17192 5.445 3.96296 
6.20297 5.5 3.97778 6.22692 5.555 3.99259 6.25604 5.61 4 
6.215 6.50601 4 6.27 6.49215 4 6.325 6.49011 4 
6.38 6.49 4 6.435 6.48989 4 6.49 6.48807 4 
6.545 6.47818 4 6.6 6.46508 4 6.655 6.49419 4 
6.765 6.50386 4.17037 6.82 6.47604 4.31852 6.875 6.43296 4.43704 
6.93 6.37989 4.51852 6.985 6.325 4.57037 7.57614 7.59 4.02963 
7.54907 7.64511 4.07111 7.53919 7.70215 4.11111 7.55111 7.77101 4.12889 
7.50385 7.92795 4.09852 7.52705 7.95115 4.12074 8.085 5.72 4.4 
8.01399 5.82989 4.4 7.97285 5.88285 4.4 7.91989 5.92399 4.40741 
7.865 5.94 4.42963 7.81 5.9559 4.47407 7.755 5.995 4.52593 
7.7 6.03399 4.57037 7.645 6.04785 4.59259 7.59 6.04989 4.6 
7.975 5.72011 4.5037 7.91996 5.66701 4.59259 7.86428 5.62325 4.66667 
7.80466 5.59081 4.73333 5.885 3.57511 4.66667 5.93979 3.57715 4.72593 
5.99081 3.59111 4.77037 6.01992 3.63215 4.79259 6.00671 3.68511 4.8 
7.48419 5.995 4.6 7.45519 5.94 4.6 7.47033 5.885 4.60741 
7.49407 5.83 4.62963 7.53489 5.775 4.67407 7.5741 5.72 4.72593 
7.59007 5.66507 4.77037 7.60744 5.61143 4.79259 7.65782 5.56567 4.8 
7.74125 5.225 4.8 7.71601 5.28 4.8 7.71597 5.33507 4.8 
7.74043 5.39143 4.8 7.74762 5.45567 4.8 
LINES 47 433
4 44 45 46 39 
6 37 47 48 49 50 43 
4 43 51 52 42 
6 43 53 54 55 56 35 
40 41 57 58 59 60 61 62 63 64 65 66 67 68 69 70 71 72 73 74 75 76 77 78 79 80 81 82 83 84 85 86 87 88 89 90 91 92 93 94 18 
9 40 95 96 97 98 99 100 101 37 
8 40 102 103 104 105 106 107 20 
15 40 108 109 110 111 112 113 114 115 116 117 118 119 120 34 
3 37 121 38 
4 39 122 123 33 
6 39 124 125 126 127 34 
8 38 128 129 130 131 132 133 35 
12 38 134 135 136 137 138 139 140 141 142 143 32 
3 36 144 31 
3 32 145 20 
4 34 149 150 25 
4 33 151 152 32 
3 33 153 24 
3 32 154 24 
3 32 155 20 
3 31 167 21 
39 29 168 169 170 171 172 173 174 175 176 177 178 179 180 181 182 183 184 185 186 187 188 189 190 191 192 193 194 195 196 197 198 199 200 201 202 203 204 22 
4 28 205 206 26 
5 24 219 220 221 10 
3 21 222 15 
3 23 223 15 
5 20 224 225 226 16 
3 21 227 15 
3 20 228 8 
34 19 229 230 231 232 233 234 235 236 237 238 239 240 241 242 243 244 245 246 247 248 249 250 251 252 253 254 255 256 257 258 259 260 8 
14 18 261 262 263 264 265 266 267 268 269 270 271 272 11 
5 18 273 274 275 4 
3 15 276 9 
7 14 277 278 279 280 281 13 
11 12 282 283 284 285 286 287 288 289 290 11 
7 11 291 292 293 294 295 3 
6 10 296 297 298 299 9 
3 9 300 8 
3 9 301 8 
3 7 302 6 
11 6 303 304 305 306 307 308 309 310 311 4 
6 6 312 313 314 315 0 
7 5 316 317 318 319 320 2 
11 4 321 322 323 324 325 326 327 328 329 0 
7 1 330 331 332 333 334 0 
17 35 146 147 148 30 166 165 164 163 162 161 160 159 158 157 156 31 
15 27 207 208 209 210 211 212 213 214 17 215 216 217 218 10 

POINT_DATA 335
FIELD FieldData 7
vox_ch1 1 335 double
3287.75 2945.44 2646.73 3261.25 3287.47 2740.6 3399.7 2941.28 3616.49 
3816.69 3941.32 3216.28 2776.11 2942.56 3150.81 3917.04 3426.04 3860.78 
3393.99 3288.27 4058.77 4017.68 3011.14 3441.19 3897.99 3254.35 3180.1 
3121.3 3025.26 2790.46 3161.65 3731.77 4030.2 4124.47 3613.26 3229.22 
3371.26 3768.28 4201.43 4004.05 3167.63 2983.2 3051.9 3530.05 2975.4 
3290.44 3773.11 3766.01 3693.36 3632.73 3529.53 3258.86 3233.43 3579.09 
3681.95 3613.84 3382.77 2983.2 3047.3 3084.02 3084.02 3182.15 3221.2 
3221.2 3213.06 3187.59 3191.19 3159.94 3172.73 3153.01 3073.6 3073.6 
3014.23 2995.46 2995.46 3043.47 3043.47 3047.52 3129.22 3142.2 3183.8 
3252.25 3233.58 3313.04 3333.7 3279.04 3347.36 3471.43 3551.51 3542.78 
3639.16 3675.63 3649.98 3582.9 3659.23 3210.25 3162.53 3230.44 3221.01 
3286.54 3414.83 3583.78 3272.73 3262.1 3268.19 3368.06 3574.22 3823.95 
3167.63 3147.88 3123.65 3140.09 3125.68 3204.69 3166.44 3279.84 3314.02 
3255.31 3140.7 3310.16 3498.78 4080.94 3978.74 4127.17 3703.75 3646.54 
3711.9 3684.01 4118.88 4118.88 3824.83 3493.33 3329.26 3267.3 4210.51 
4182.89 4162.48 4071.63 3834.47 3821.32 3821.32 3826.38 3923.01 4127.06 
3689.22 4172.32 3213.91 3128.68 3186.99 3544.37 3540.69 4077.69 4046.74 
4071.33 3951.53 4206.84 3779.89 3827.43 3777.31 3630.02 3423.52 3423.52 
3391.9 3202.7 3239.68 3224.4 3183.86 3980.37 2833.32 2896.79 2918.02 
2906.7 2929.48 2929.48 2978.43 3081.19 3029.46 3108.62 3135.63 3074.3 
3203.14 3155.46 3155.46 3238.79 3124.36 3184.42 3227.41 3224.93 3221.53 
3185.95 3185.95 3121.1 3083.6 3131.88 3141.77 3170.16 3165.11 3114.15 
3075.72 3033.75 3044.77 2990.85 3052.64 3045.93 3072.16 3129.88 3129.88 
3221.81 3412.79 3475.41 3524.41 3514.14 3362.81 3546.33 3734.52 3954.11 
3964.69 3991.74 4070.43 4061.84 4156.69 3988.48 4147.62 3815.8 3813.37 
3682.04 3674.69 4147.62 3765.7 3314.6 3283.32 3283.32 3255.75 3297.2 
3286.79 3285.51 3288.65 3343.33 3315.1 3314.84 3287.02 3306.68 3302.35 
3287.11 3303.32 3338.58 3337.72 3277.06 3189.4 3226.02 3226.02 3239.79 
3284.68 3247.37 3294.7 3404.41 3361.09 3290.19 3336.77 3384.54 3479.14 
3400.49 3289.31 3266.67 3237.37 3170.38 3186.17 3171.68 3116.11 3132.12 
3088.32 3216.4 3228.85 3423.7 3494.86 3368.99 3939.6 3150.81 3190.77 
3190.77 3187.21 2942.56 2862.47 2862.47 2883.35 2916.51 2916.51 2940.65 
3012.31 3012.31 3226.07 3265.59 3296.67 3268.52 3307.84 3343.2 3899.64 
3847.31 3811.68 3720.21 3691.62 3691.62 3196.4 3399.7 3352.28 3312.12 
3272.36 3237.89 3183.68 3204 3288.88 3288.88 3328.26 3239.43 3253.49 
3281.35 2854.6 2858.91 2919.9 2907.33 2794.35 3362.48 3309.27 3241.93 
3185.86 3185.86 3199.84 3282.75 3267.25 3281.67 2885.81 3033.06 3115.11 
3174.93 3254.36 
vox_ch2 1 335 double
2743.28 2540.81 2426.63 2599.23 2749.19 2473.72 2747.84 2423.58 2786.16 
3043.15 3101.58 2706.19 2456.35 2520.64 2696.46 2866.8 2859.04 2920.02 
2929.46 2633.17 3071.59 2966.11 2545.96 2727.51 3028.1 2727.91 2569.51 
2589.51 2510.85 2444.93 2718.84 2746.57 3087.48 3212.65 2935.73 2825.41 
2561.57 2937.28 3077.67 3148.17 2799.2 2592.9 2618.67 2789.48 2529.85 
2625.44 2897.77 2898.9 2930.96 2938.38 2908.69 2714.21 2733.14 2911.77 
2852.9 2797.37 2781.12 2592.9 2648.14 2704.83 2704.83 2775.06 2796.93 
2796.93 2798.14 2805 2816.28 2782.25 2802.56 2764.69 2687.12 2687.12 
2634.26 2616.86 2616.86 2644.99 2644.99 2664.07 2691.33 2683.6 2718.44 
2756.48 2783.05 2766.72 2853.52 2914.54 3011.05 3054.2 3021.01 2977.93 
2900.25 2892.54 2907.74 2967.14 2908.09 2757.27 2632.3 2669.33 2675.59 
2728.79 2790.7 2843.58 2814.42 2844.6 2845.21 2875.9 3021.74 3075.31 
2799.2 2781.14 2738.89 2728.94 2720.16 2695.64 2680.98 2678.35 2679.73 
2683.58 2706.09 2770.22 2875.96 3054.32 3196.84 3238.23 3088.43 3001.57 
2958.02 2955.42 2984.46 2984.46 2921.3 2888.56 2861.54 2848.68 3036.83 
3062.2 3075.36 3045.31 2960.09 2933.07 2933.07 2885.31 2902.17 2972.43 
2720.67 3086 2817.02 2715.17 2752.79 2906.78 2814.98 3193.56 3123.43 
3055.32 3066.56 3092.7 2771.04 2852.49 2750.78 2663.93 2628.04 2628.04 
2661.67 2694.28 2705.95 2698.32 2712.81 2961.53 2433.23 2451.07 2467.49 
2468.85 2465.31 2465.31 2461.16 2490.74 2523.7 2569.41 2570.1 2616.86 
2639.59 2662.49 2662.49 2633.47 2647.16 2641.7 2658.21 2659.64 2624.6 
2639.37 2639.37 2640.57 2630.25 2605.21 2573.12 2570.11 2563.43 2543.91 
2534.6 2509.64 2580.4 2584.74 2585.43 2576.2 2578.53 2555.14 2555.14 
2681.27 2783.07 2797.41 2851.32 2846.38 2794.21 2876.16 2941.83 2951.96 
3040.54 3043.1 3132.1 3116.09 3190.52 3179.46 2948 2823.54 3067.59 
2967.94 2917.07 2948 2977.68 2728.37 2686.36 2686.36 2669.88 2682.69 
2637.3 2674.85 2706.81 2646.3 2640.89 2664.95 2645.07 2650.72 2586.09 
2593.19 2563.58 2553.85 2587.53 2590 2657.78 2694.54 2694.54 2744.21 
2757.91 2749.33 2744.46 2716.65 2716.35 2714.4 2717.09 2721.07 2731.33 
2895.49 2730.96 2728.33 2658.25 2601.31 2617.41 2626.54 2593.31 2621.14 
2628.26 2644.78 2667.11 2862.96 2859.15 2761.22 3050.77 2696.46 2719.21 
2719.21 2662.35 2520.64 2495.09 2495.09 2505.64 2550.35 2550.35 2595.77 
2666.49 2666.49 2734.56 2700.78 2631.96 2645.35 2634.78 2610.01 3112.38 
3081.67 3071.16 3056.14 2859.53 2859.53 2553.09 2747.84 2759.42 2718.69 
2647.43 2629.73 2606.96 2591.86 2651.69 2651.69 2760.21 2708.96 2703.78 
2718.69 2516.91 2537.35 2546.91 2525.77 2479.47 2748.83 2773.89 2724.62 
2645.42 2645.42 2645.1 2667.48 2684.94 2732.91 2573.78 2667.59 2706.27 
2731.81 2750.33 
background_sub_ch2 1 335 double
320.704 118.235 4.04938 176.654 326.605 51.1358 325.259 1 363.58 
620.568 679 283.605 33.7654 98.0617 273.877 444.222 436.457 497.444 
506.877 210.593 649.012 543.531 123.383 304.926 605.519 305.333 146.926 
166.926 88.2716 22.3457 296.259 323.988 664.901 790.074 513.148 402.827 
138.988 514.704 655.086 725.593 376.617 170.321 196.086 366.901 107.272 
202.864 475.185 476.321 508.383 515.802 486.111 291.63 310.556 489.185 
430.321 374.79 358.543 170.321 225.556 282.247 282.247 352.481 374.346 
374.346 375.556 382.42 393.704 359.667 379.975 342.111 264.543 264.543 
211.679 194.284 194.284 222.407 222.407 241.494 268.753 261.025 295.864 
333.901 360.469 344.136 430.938 491.963 588.469 631.617 598.432 555.346 
477.667 469.963 485.16 544.556 485.506 334.691 209.716 246.753 253.012 
306.21 368.123 421 391.84 422.025 422.63 453.321 599.16 652.728 
376.617 358.556 316.309 306.358 297.58 273.062 258.395 255.765 257.148 
261 283.506 347.642 453.383 631.741 774.259 815.654 665.852 578.988 
535.444 532.84 561.877 561.877 498.716 465.975 438.963 426.099 614.247 
639.617 652.778 622.728 537.506 510.494 510.494 462.728 479.593 549.852 
298.086 663.42 394.444 292.593 330.21 484.198 392.395 770.975 700.852 
632.741 643.975 670.123 348.457 429.914 328.198 241.346 205.457 205.457 
239.086 271.704 283.37 275.741 290.235 538.951 10.6543 28.4938 44.9136 
46.2716 42.7284 42.7284 38.5802 68.1605 101.123 146.827 147.519 194.284 
217.012 239.914 239.914 210.889 224.58 219.123 235.63 237.062 202.025 
216.79 216.79 217.988 207.667 182.63 150.543 147.531 140.852 121.333 
112.025 87.0617 157.815 162.16 162.852 153.617 155.951 132.556 132.556 
258.691 360.494 374.827 428.741 423.802 371.63 453.58 519.247 529.383 
617.963 620.519 709.519 693.506 767.938 756.877 525.42 400.963 645.012 
545.358 494.494 525.42 555.099 305.79 263.778 263.778 247.296 260.111 
214.716 252.272 284.235 223.716 218.309 242.37 222.494 228.136 163.506 
170.605 141 131.272 164.951 167.42 235.198 271.963 271.963 321.63 
335.333 326.753 321.877 294.074 293.765 291.815 294.506 298.494 308.753 
472.914 308.383 305.753 235.667 178.728 194.827 203.963 170.728 198.556 
205.679 222.198 244.531 440.383 436.568 338.642 628.185 273.877 296.63 
296.63 239.765 98.0617 72.5062 72.5062 83.0617 127.765 127.765 173.185 
243.914 243.914 311.975 278.198 209.383 222.765 212.198 187.432 689.802 
659.086 648.58 633.556 436.951 436.951 130.506 325.259 336.84 296.111 
224.852 207.148 184.383 169.284 229.111 229.111 337.63 286.383 281.198 
296.111 94.3333 114.765 124.333 103.185 56.8889 326.247 351.309 302.037 
222.84 222.84 222.519 244.901 262.358 310.333 151.198 245.012 283.691 
309.235 327.753 
background_sub_ch1 1 335 double
641.025 298.716 0 614.519 640.741 93.8765 752.975 294.556 969.765 
1169.96 1294.59 569.556 129.383 295.827 504.086 1270.31 779.309 1214.05 
747.259 641.543 1412.04 1370.95 364.407 794.457 1251.26 607.617 533.37 
474.568 378.531 143.728 514.926 1085.04 1383.47 1477.74 966.531 582.494 
724.531 1121.56 1554.7 1357.32 520.901 336.469 405.173 883.321 328.667 
643.716 1126.38 1119.28 1046.63 986 882.802 612.136 586.704 932.358 
1035.22 967.111 736.037 336.469 400.568 437.296 437.296 535.42 574.469 
574.469 566.333 540.864 544.457 513.21 526 506.284 426.877 426.877 
367.506 348.728 348.728 396.741 396.741 400.79 482.494 495.469 537.074 
605.519 586.852 666.309 686.975 632.309 700.63 824.704 904.778 896.049 
992.432 1028.9 1003.25 936.173 1012.51 563.519 515.802 583.716 574.284 
639.815 768.099 937.049 626 615.37 621.457 721.333 927.494 1177.22 
520.901 501.148 476.926 493.358 478.951 557.963 519.716 633.111 667.296 
608.58 493.975 663.432 852.049 1434.21 1332.01 1480.44 1057.02 999.815 
1065.17 1037.28 1472.15 1472.15 1178.1 846.605 682.531 620.568 1563.78 
1536.16 1515.75 1424.9 1187.74 1174.59 1174.59 1179.65 1276.28 1480.33 
1042.49 1525.59 567.185 481.951 540.259 897.642 893.963 1430.96 1400.01 
1424.6 1304.8 1560.11 1133.16 1180.7 1130.58 983.296 776.79 776.79 
745.173 555.975 592.951 577.667 537.136 1333.64 186.593 250.062 271.296 
259.975 282.753 282.753 331.704 434.457 382.728 461.889 488.901 427.568 
556.407 508.728 508.728 592.062 477.63 537.691 580.679 578.198 574.802 
539.222 539.222 474.37 436.877 485.148 495.037 523.432 518.383 467.42 
428.988 387.025 398.037 344.123 405.914 399.198 425.432 483.148 483.148 
575.086 766.062 828.679 877.679 867.407 716.086 899.605 1087.79 1307.38 
1317.96 1345.01 1423.7 1415.11 1509.96 1341.75 1500.89 1169.07 1166.64 
1035.31 1027.96 1500.89 1118.98 667.877 636.593 636.593 609.025 650.469 
640.062 638.778 641.926 696.605 668.37 668.111 640.296 659.951 655.617 
640.383 656.593 691.852 690.988 630.333 542.667 579.296 579.296 593.062 
637.951 600.642 647.975 757.679 714.358 643.457 690.037 737.815 832.407 
753.765 642.58 619.938 590.642 523.654 539.444 524.951 469.383 485.395 
441.593 569.667 582.123 776.975 848.136 722.259 1292.88 504.086 544.037 
544.037 540.481 295.827 215.741 215.741 236.617 269.778 269.778 293.926 
365.58 365.58 579.346 618.864 649.938 621.79 661.111 696.469 1252.91 
1200.58 1164.95 1073.48 1044.89 1044.89 549.667 752.975 705.556 665.395 
625.63 591.16 536.951 557.272 642.148 642.148 681.531 592.704 606.765 
634.617 207.877 212.185 273.173 260.605 147.617 715.753 662.543 595.198 
539.136 539.136 553.111 636.025 620.519 634.938 239.086 386.333 468.383 
528.198 607.63 
width_equivalent 1 335 double
320.704 118.235 4.04938 176.654 326.605 51.1358 325.259 1 363.58 
620.568 679 283.605 33.7654 98.0617 273.877 444.222 436.457 497.444 
506.877 210.593 649.012 543.531 123.383 304.926 605.519 305.333 146.926 
166.926 88.2716 22.3457 296.259 323.988 664.901 790.074 513.148 402.827 
138.988 514.704 655.086 725.593 376.617 170.321 196.086 366.901 107.272 
202.864 475.185 476.321 508.383 515.802 486.111 291.63 310.556 489.185 
430.321 374.79 358.543 170.321 225.556 282.247 282.247 352.481 374.346 
374.346 375.556 382.42 393.704 359.667 379.975 342.111 264.543 264.543 
211.679 194.284 194.284 222.407 222.407 241.494 268.753 261.025 295.864 
333.901 360.469 344.136 430.938 491.963 588.469 631.617 598.432 555.346 
477.667 469.963 485.16 544.556 485.506 334.691 209.716 246.753 253.012 
306.21 368.123 421 391.84 422.025 422.63 453.321 599.16 652.728 
376.617 358.556 316.309 306.358 297.58 273.062 258.395 255.765 257.148 
261 283.506 347.642 453.383 631.741 774.259 815.654 665.852 578.988 
535.444 532.84 561.877 561.877 498.716 465.975 438.963 426.099 614.247 
639.617 652.778 622.728 537.506 510.494 510.494 462.728 479.593 549.852 
298.086 663.42 394.444 292.593 330.21 484.198 392.395 770.975 700.852 
632.741 643.975 670.123 348.457 429.914 328.198 241.346 205.457 205.457 
239.086 271.704 283.37 275.741 290.235 538.951 10.6543 28.4938 44.9136 
46.2716 42.7284 42.7284 38.5802 68.1605 101.123 146.827 147.519 194.284 
217.012 239.914 239.914 210.889 224.58 219.123 235.63 237.062 202.025 
216.79 216.79 217.988 207.667 182.63 150.543 147.531 140.852 121.333 
112.025 87.0617 157.815 162.16 162.852 153.617 155.951 132.556 132.556 
258.691 360.494 374.827 428.741 423.802 371.63 453.58 519.247 529.383 
617.963 620.519 709.519 693.506 767.938 756.877 525.42 400.963 645.012 
545.358 494.494 525.42 555.099 305.79 263.778 263.778 247.296 260.111 
214.716 252.272 284.235 223.716 218.309 242.37 222.494 228.136 163.506 
170.605 141 131.272 164.951 167.42 235.198 271.963 271.963 321.63 
335.333 326.753 321.877 294.074 293.765 291.815 294.506 298.494 308.753 
472.914 308.383 305.753 235.667 178.728 194.827 203.963 170.728 198.556 
205.679 222.198 244.531 440.383 436.568 338.642 628.185 273.877 296.63 
296.63 239.765 98.0617 72.5062 72.5062 83.0617 127.765 127.765 173.185 
243.914 243.914 311.975 278.198 209.383 222.765 212.198 187.432 689.802 
659.086 648.58 633.556 436.951 436.951 130.506 325.259 336.84 296.111 
224.852 207.148 184.383 169.284 229.111 229.111 337.63 286.383 281.198 
296.111 94.3333 114.765 124.333 103.185 56.8889 326.247 351.309 302.037 
222.84 222.84 222.519 244.901 262.358 310.333 151.198 245.012 283.691 
309.235 327.753 
norm_scaled 1 335 double
0.00678584 0.00857723 0 0.0118098 0.00666028 0.00623254 0.0078593 1 0.00905522 
0.00640052 0.00647286 0.00681797 0.0130088 0.0102417 0.0062486 0.00970827 0.00606179 0.00828561 
0.00500497 0.0103423 0.00738628 0.00856309 0.0100269 0.00884522 0.0070154 0.00675599 0.0123243 
0.00965178 0.0145584 0.0218364 0.00590073 0.0113697 0.00706391 0.00634985 0.00639449 0.00490914 
0.0176976 0.00739769 0.00805716 0.00635071 0.00469557 0.00670671 0.00701497 0.00817339 0.0104017 
0.0107726 0.00804741 0.00797762 0.00698932 0.00648972 0.00616539 0.00712605 0.00641375 0.00647056 
0.00816721 0.00876034 0.00696933 0.00670671 0.00602914 0.00525992 0.00525992 0.00515693 0.00520987 
0.00520987 0.00511954 0.00480154 0.0046949 0.00484426 0.00469962 0.00502412 0.00547821 0.00547821 
0.00589413 0.00609373 0.00609373 0.00605606 0.00605606 0.00563435 0.00609496 0.00644418 0.00616275 
0.00615662 0.00552705 0.00657322 0.00541201 0.00436344 0.00404201 0.00443279 0.00513286 0.00547774 
0.00705356 0.00743264 0.00702029 0.00583642 0.00708004 0.00571606 0.00834996 0.00803104 0.0077058 
0.00709362 0.00708364 0.00755637 0.00542374 0.0049503 0.00499211 0.0054021 0.00525534 0.00612292 
0.00469557 0.00474507 0.00511885 0.00546721 0.00546411 0.00693709 0.00682833 0.00840371 0.00880984 
0.00791608 0.00591528 0.00647884 0.00638017 0.00770738 0.00584056 0.00616196 0.0053894 0.0058625 
0.00675365 0.00660897 0.00889495 0.00889495 0.00801976 0.00616809 0.0052787 0.00494438 0.00864301 
0.0081536 0.00788308 0.00776817 0.00750189 0.00781141 0.00781141 0.00865489 0.00903457 0.00914001 
0.0118731 0.00780698 0.00488171 0.00559206 0.0055545 0.00629381 0.00773444 0.00630116 0.0067817 
0.00764366 0.00687873 0.00790376 0.0110402 0.00932379 0.011695 0.0138318 0.0128356 0.0128356 
0.0105812 0.00694693 0.0071039 0.00711229 0.00628301 0.00840085 0.0594568 0.029794 0.0205069 
0.0190744 0.0224659 0.0224659 0.0291889 0.0216395 0.0128491 0.0106798 0.0112514 0.00747138 
0.00870445 0.00719886 0.00719886 0.00953117 0.00722025 0.00833061 0.00836641 0.00828033 0.00965933 
0.00844425 0.00844425 0.00738786 0.00714208 0.00901853 0.0111637 0.0120451 0.0124946 0.0130786 
0.0130006 0.0150919 0.00856266 0.00720447 0.00846201 0.00882227 0.00926138 0.0123741 0.0123741 
0.00754717 0.00721438 0.00750565 0.00694982 0.00694852 0.00654166 0.00673334 0.0071122 0.00838428 
0.00724058 0.00735875 0.00681222 0.00692744 0.00667533 0.00601839 0.00969784 0.00989853 0.00614048 
0.00644497 0.00705748 0.00969784 0.00684357 0.0074149 0.00819325 0.00819325 0.00836084 0.00848986 
0.0101202 0.00859635 0.00766727 0.0105711 0.0103939 0.00935841 0.00977003 0.00982089 0.0136128 
0.0127433 0.0158092 0.0178927 0.0142216 0.0127819 0.00783309 0.00723142 0.00723142 0.00626003 
0.00645867 0.00624063 0.00683442 0.00874704 0.00825559 0.00748591 0.00795446 0.0083916 0.00915287 
0.00541112 0.00707408 0.00688352 0.00850862 0.00994681 0.00940005 0.00873776 0.00933371 0.00829939 
0.00728894 0.00870391 0.00808191 0.00598976 0.00659548 0.00724078 0.00698718 0.0062486 0.00622654 
0.00622654 0.00765292 0.0102417 0.0101016 0.0101016 0.00967115 0.00716846 0.00716846 0.00576182 
0.00508838 0.00508838 0.0063045 0.00755222 0.0105381 0.00947608 0.0105771 0.0126151 0.00616636 
0.00618417 0.00609785 0.00575231 0.0081184 0.0081184 0.0142989 0.0078593 0.00711117 0.00762882 
0.00944612 0.00968851 0.0098866 0.0111759 0.00951529 0.00951529 0.00685295 0.00702625 0.00732558 
0.00727595 0.00748123 0.00627678 0.00745904 0.00857429 0.00880932 0.00744817 0.00640263 0.00669012 
0.0082137 0.0082137 0.00843877 0.0088169 0.00802959 0.00694602 0.00536838 0.00535312 0.00560515 
0.00579884 0.00629397 
norm_unscaled 1 335 double
1.99881 2.52647 0 3.47865 1.96182 1.83583 2.315 294.556 2.66727 
1.88531 1.90662 2.00827 3.83181 3.01674 1.84056 2.85962 1.78553 2.44057 
1.47424 3.04637 2.17567 2.52231 2.95347 2.60541 2.06643 1.99001 3.6302 
2.84298 4.28825 6.43204 1.73809 3.34901 2.08071 1.87038 1.88353 1.44601 
5.21292 2.17903 2.37328 1.87064 1.3831 1.9755 2.0663 2.40752 3.06387 
3.17314 2.37041 2.34985 2.05874 1.91158 1.81605 2.09902 1.88921 1.90594 
2.4057 2.58041 2.05285 1.9755 1.77592 1.54934 1.54934 1.519 1.5346 
1.5346 1.50799 1.41432 1.38291 1.4269 1.3843 1.47988 1.61364 1.61364 
1.73615 1.79494 1.79494 1.78385 1.78385 1.65963 1.79531 1.89817 1.81527 
1.81347 1.62802 1.93618 1.59414 1.28528 1.1906 1.3057 1.51191 1.6135 
2.07767 2.18932 2.06787 1.71915 2.08547 1.6837 2.45953 2.36559 2.26979 
2.08946 2.08652 2.22577 1.59759 1.45814 1.47045 1.59122 1.54799 1.80354 
1.3831 1.39769 1.50779 1.6104 1.60948 2.04336 2.01132 2.47536 2.59499 
2.33173 1.74238 1.90838 1.87932 2.27025 1.72037 1.81504 1.58748 1.72683 
1.98932 1.94671 2.62006 2.62006 2.36226 1.81685 1.55487 1.45639 2.54585 
2.40169 2.322 2.28816 2.20972 2.30089 2.30089 2.54935 2.66118 2.69224 
3.49729 2.29959 1.43793 1.64717 1.63611 1.85388 2.27822 1.85604 1.99759 
2.25148 2.02617 2.3281 3.25194 2.74637 3.44482 4.07422 3.7808 3.7808 
3.11675 2.04626 2.09249 2.09496 1.8507 2.47452 17.5133 8.776 6.04041 
5.61846 6.61745 6.61745 8.59776 6.37403 3.78476 3.1458 3.31417 2.20074 
2.56394 2.12047 2.12047 2.80746 2.12677 2.45383 2.46437 2.43902 2.84521 
2.4873 2.4873 2.17613 2.10374 2.65646 3.28834 3.54795 3.68034 3.85236 
3.8294 4.44541 2.52218 2.12212 2.49253 2.59865 2.72799 3.64487 3.64487 
2.22306 2.12503 2.21083 2.04711 2.04673 1.92688 1.98334 2.09494 2.46964 
2.13275 2.16756 2.00658 2.04052 1.96626 1.77275 2.85655 2.91567 1.80871 
1.8984 2.07882 2.85655 2.01581 2.1841 2.41337 2.41337 2.46273 2.50074 
2.98097 2.5321 2.25844 3.11379 3.06158 2.75657 2.87782 2.8928 4.00974 
3.7536 4.65669 5.27038 4.18906 3.76499 2.30728 2.13006 2.13006 1.84393 
1.90244 1.83821 2.01312 2.57649 2.43173 2.20502 2.34303 2.47179 2.69603 
1.59388 2.08371 2.02758 2.50626 2.92989 2.76884 2.57375 2.74929 2.44463 
2.147 2.56378 2.38057 1.76432 1.94274 2.13281 2.05811 1.84056 1.83406 
1.83406 2.25421 3.01674 2.97548 2.97548 2.84869 2.11151 2.11151 1.69718 
1.49881 1.49881 1.85702 2.22455 3.10407 2.79123 3.11555 3.71585 1.81634 
1.82158 1.79615 1.69438 2.39132 2.39132 4.21181 2.315 2.09463 2.24711 
2.78241 2.85381 2.91215 3.29193 2.80278 2.80278 2.01858 2.06962 2.15779 
2.14317 2.20364 1.84886 2.1971 2.5256 2.59484 2.1939 1.88593 1.97061 
2.41939 2.41939 2.48569 2.59707 2.36516 2.04599 1.58129 1.57679 1.65103 
1.70808 1.85392 
