# vtk DataFile Version 4.0
vtk output
ASCII
DATASET POLYDATA
POINTS 359 float
7.28444 5.65889 3.86667 7.26 5.445 4 7.425 5.28 4 
7.48 4.895 4 7.535 4.785 4 7.68167 4.65667 3.86667 
7.55333 5.35333 3.8 7.8804 4.0304 3.72531 7.7 5.61 3.4 
7.81 5.335 3.3 7.81 5.17 3.4 8.06667 3.94167 3.26667 
7.535 5.775 3.2 7.22333 6.72833 2.86667 7.26 6.27 3 
8.195 5.06 3 7.425 6.435 2.8 8.26833 4.93167 2.6 
8.2775 4.4275 2.3 6.655 9.845 2.6 6.435 9.845 2.6 
6.93 7.04 2.6 8.06667 5.51833 2.46667 8.14 3.74 2.6 
6.33 9.355 2.27273 5.83 8.855 2.4 5.995 8.58 2.4 
8.14 4.66125 2.25 8.415 4.235 2.4 7.865 3.08 2.4 
6.255 9.85 1.87273 6.27 9.625 2.2 5.72 9.295 2.1 
6.16 9.02 2.2 6.25167 8.76333 2.2 6.325 7.975 2.2 
6.71 9.955 2 5.61 9.625 2 5.885 9.57 2 
6.27 8.47 2 5.94 8.3875 1.95 6.105 8.305 2 
5.995 7.755 2 6.765 7.37 2 7.81 5.83 2 
8.17667 5.31667 1.86667 8.415 4.785 2 5.995 7.865 1.8 
7.81 5.225 1.8 6.82 9.515 1.6 6.16 8.03 1.53333 
6.94833 9.36833 1.13333 6.82 9.24 1.2 5.555 8.91 1.1 
6.325 7.975 1 6.215 7.81 1 7.205 9.405 0.8 
7.14993 9.40493 0.834568 7.09357 9.40357 0.898765 7.02933 9.39433 1.00247 
6.17601 7.86715 1.18765 6.16215 7.93601 1.36543 6.2541 8.0141 1.2642 
5.6447 9.00399 0.888889 5.68563 9.07264 0.72963 5.6606 9.1256 0.648148 
5.61 9.15277 0.637037 5.55919 9.1256 0.685185 5.53008 9.07264 0.781481 
5.54329 9.00399 0.925926 5.60785 8.81601 1.21481 5.64899 8.74715 1.30741 
5.665 8.69011 1.37407 5.68101 8.635 1.42963 5.72226 8.57995 1.50926 
5.77726 8.52393 1.62778 5.84601 8.462 1.78148 5.52986 8.965 1.34074 
5.54329 9.02 1.54444 5.55532 9.07511 1.6963 5.57315 9.13215 1.81852 
5.62815 9.20101 1.94815 6.8803 9.3003 1.16049 6.8803 9.4494 1.3679 
6.14614 8.12399 1.57284 6.11896 8.19285 1.66173 6.10704 8.24989 1.81235 
6.0659 7.9359 1.6642 6.215 7.99101 1.76543 6.27 7.97715 1.98765 
6.85899 9.57 1.60741 6.87285 9.625 1.62963 6.87478 9.68 1.67407 
6.87285 9.735 1.73333 6.85889 9.79 1.8 6.81785 9.845 1.86667 
6.76489 9.9 1.93333 6.765 9.4759 1.72593 6.71 9.46011 1.83704 
6.655 9.44614 1.91852 6.59979 9.41887 1.98047 6.5409 9.40509 2.0431 
6.45944 9.39056 2.14141 6.35963 9.97729 1.80808 6.43227 10.0447 1.77643 
6.48986 10.0605 1.78047 6.545 10.0489 1.8 6.6 10.01 1.83704 
6.655 9.9709 1.9037 8.20311 4.392 1.96296 8.14322 4.34393 1.73704 
8.10117 4.28995 1.65556 8.08726 4.235 1.67407 8.08715 4.18 1.72593 
8.09907 4.125 1.77778 8.12808 4.07 1.82222 8.15192 4.015 1.88148 
8.18093 3.96 1.96296 8.19285 3.905 2.08148 8.19274 3.85 2.22963 
8.17899 3.795 2.40741 7.81215 5.17 1.8 7.82601 5.115 1.8 
7.86511 5.06 1.8 7.90603 5.005 1.80741 7.93192 4.95 1.82963 
7.96318 4.89487 1.88333 7.99122 4.83731 1.97222 8.04805 4.76499 2.1 
8.24252 5.23567 1.93086 8.28828 5.17143 1.98272 8.30468 5.11504 2.03951 
8.31528 5.05928 2.14815 8.31947 4.99966 2.34074 8.09567 5.33181 1.73827 
8.03143 5.3504 1.64938 7.97518 5.39211 1.60988 7.92204 5.44511 1.6 
7.87896 5.5 1.6 7.85125 5.555 1.60741 7.81215 5.61 1.62963 
7.78497 5.665 1.68148 7.79818 5.72 1.76296 7.80807 5.775 1.87407 
5.94011 7.92 1.9037 5.88726 7.975 1.99259 5.84805 8.03 2.05926 
5.84418 8.085 2.0963 5.85922 8.14 2.0963 5.856 8.19505 2.06481 
5.87512 8.25107 2.02037 5.89907 8.313 1.98148 5.995 7.81 1.9037 
8.20295 4.55308 2.26481 8.39756 4.83928 2.14074 8.34718 4.88967 2.34074 
8.17294 5.38538 2.07654 8.1318 5.44962 2.27654 7.79604 5.885 2.02963 
7.76682 5.94 2.08148 7.74093 5.995 2.15556 7.69796 6.05 2.24444 
7.645 6.105 2.31852 7.59215 6.16 2.37037 7.55101 6.215 2.4 
7.535 6.27 2.43704 7.51899 6.325 2.51111 7.47785 6.38 2.63704 
7.865 5.775 2.19259 7.91996 5.71993 2.35802 7.97428 5.66357 2.4642 
8.02466 5.59933 2.49383 6.71 7.425 2.06667 6.655 7.48 2.12593 
6.60011 7.535 2.17037 6.54715 7.59 2.19259 6.50601 7.645 2.19259 
6.49011 7.7 2.17778 6.47604 7.755 2.15556 6.44682 7.81 2.14815 
6.42093 7.865 2.15556 6.37796 7.92 2.17778 6.82 7.35399 1.91111 
6.87489 7.31285 1.87407 6.92785 7.25989 1.91852 6.96878 7.205 2.03704 
6.9807 7.15 2.20741 6.96889 7.095 2.4 6.75125 7.315 2.19259 
6.72611 7.26 2.36296 6.72815 7.205 2.48889 6.76726 7.15011 2.56296 
6.82011 7.09715 2.59259 6.875 7.05601 2.6 6.16 8.36 1.94074 
6.215 8.415 1.94074 6.0341 8.35205 1.97593 5.95386 8.462 2.10741 
5.98114 8.52393 2.25741 6.28386 8.525 2.02963 6.31089 8.58004 2.07407 
6.32009 8.63572 2.12593 6.30355 8.69534 2.17037 6.32296 8.415 2.18519 
6.36593 8.36 2.33333 6.39182 8.305 2.40741 6.42093 8.25 2.41481 
6.43285 8.195 2.37037 6.43274 8.14 2.32593 6.41889 8.085 2.28148 
6.37785 8.03 2.24444 5.88274 9.51489 2.0037 5.86674 9.45785 2.01852 
5.81185 9.38899 2.05185 5.665 9.68 2 5.72 9.735 2 
5.775 9.79 2.00741 5.83 9.84489 2.02222 5.885 9.89774 2.04444 
5.94 9.93685 2.05185 5.99519 9.93879 2.03973 6.05371 9.9119 1.99865 
6.13265 9.88749 1.94141 6.24246 9.71324 2.04242 6.67101 9.91386 2.2 
6.65715 9.88614 2.4 8.37525 4.31385 2.35185 8.15672 4.76642 2.38889 
8.20248 4.84799 2.50556 6.17067 8.70919 2.2963 6.10643 8.67675 2.36296 
6.05007 8.63299 2.39259 6.2507 8.84433 2.2 6.2261 8.90857 2.2 
6.201 8.96493 2.2 6.2149 9.07522 2.20269 6.26805 9.13449 2.21347 
6.31045 9.21847 2.23771 6.105 9.01807 2.2 6.05 9.00818 2.2 
5.995 8.99508 2.20741 5.94 9.02419 2.22222 5.885 9.07532 2.24074 
5.83 9.13215 2.23333 5.775 9.20101 2.18519 6.32431 9.48444 2.17845 
6.30919 9.5659 2.15421 6.21748 9.5699 2.35084 6.18275 9.51305 2.42828 
6.21162 9.44545 2.39327 6.32064 9.80961 2.16364 6.37941 9.80835 2.40606 
7.86715 3.135 2.4 7.88101 3.19 2.40741 7.92 3.245 2.42963 
7.9591 3.3 2.46667 7.975 3.355 2.4963 7.9909 3.41 2.5037 
8.03 3.465 2.48889 8.0691 3.52 2.47407 8.08489 3.575 2.46667 
8.09886 3.63 2.48148 8.12614 3.685 2.52593 8.15708 4.57593 2.39259 
8.20515 4.50361 2.40926 5.94215 8.635 2.32593 5.90101 8.69 2.28889 
5.885 8.745 2.2963 5.8691 8.8 2.34074 8.10029 3.79643 2.81235 
8.08181 3.86067 3.03457 8.02456 5.45238 2.6679 7.97214 5.40468 2.8679 
7.90396 5.37618 3.07654 6.985 6.985 2.62963 7.04004 6.92993 2.67654 
7.09572 6.87357 2.73827 7.15534 6.80933 2.80494 8.19183 4.353 2.60741 
8.17244 4.29107 2.83333 8.15219 4.23505 2.95185 8.14193 4.18 3 
8.13996 4.12496 3.0321 8.13714 4.06928 3.08642 8.11866 4.00967 3.1679 
8.2162 4.9997 2.8 8.20034 4.89171 2.86667 8.14072 4.85336 3.08148 
8.08504 4.82804 3.22963 8.03 4.79714 3.32593 7.975 4.77501 3.4 
7.92 4.756 3.46667 7.86496 4.75897 3.5358 7.80928 4.73917 3.61975 
7.74966 4.71059 3.73086 7.46389 6.49 2.7037 7.4757 6.545 2.63704 
7.46378 6.6 2.61481 7.42278 6.65482 2.6321 7.36846 6.70642 2.68642 
7.30433 6.73832 2.7679 7.37 6.38 2.83704 7.315 6.325 2.9037 
7.20715 6.325 3.11852 7.16611 6.38 3.20741 7.15215 6.435 3.24444 
7.15011 6.49 3.24444 7.15014 6.54504 3.20988 7.15286 6.60072 3.14568 
7.17134 6.66034 3.02716 7.20715 6.215 3.2 7.16601 6.16 3.39259 
7.15021 6.105 3.57037 7.13808 6.05 3.71852 7.12078 5.995 3.83704 
7.12218 5.94 3.91852 7.09548 5.88488 3.96543 7.07726 5.82761 3.9679 
7.13842 5.75722 3.93086 7.75715 5.42899 3.25185 7.71611 5.49785 3.25556 
7.70215 5.55489 3.31481 7.47994 5.77477 3.37284 7.42381 5.77046 3.53827 
7.36111 5.74121 3.70123 7.97181 3.97271 3.5142 7.81 5.2409 3.35185 
7.71457 5.31058 3.45185 7.63648 5.32863 3.61852 7.81222 4.11111 3.87284 
7.75726 4.17796 3.95 7.71601 4.23489 3.96111 7.70011 4.29 3.92593 
7.68614 4.345 3.87407 7.65896 4.4 3.82963 7.64711 4.45507 3.80988 
7.64654 4.51143 3.81235 7.65567 4.57567 3.83457 7.4853 5.3012 3.8963 
7.53791 5.43442 3.80247 7.51411 5.50048 3.81235 7.43698 5.56916 3.83457 
7.6006 4.7247 3.9358 7.5191 4.84 4 7.48226 4.76201 4.12593 
7.44326 4.7893 4.17778 7.44315 4.84021 4.12593 7.42715 4.95 4.03704 
7.38611 5.005 4.05185 7.37215 5.06 4.04444 7.37021 5.115 4.02222 
7.37215 5.17 4.00741 7.38601 5.225 4 7.37 5.335 4 
7.315 5.39 4 7.29027 5.53003 3.9358 7.20741 5.49999 3.99506 
7.17137 5.55476 3.97531 7.19127 5.60822 3.93086 
LINES 73 522
5 56 57 58 59 51 
4 55 60 61 50 
3 54 62 50 
9 53 63 64 65 66 67 68 69 53 
9 53 70 71 72 73 74 75 76 40 
7 53 77 78 79 80 81 32 
3 52 82 51 
3 51 83 49 
5 50 84 85 86 41 
3 50 87 47 
4 50 88 89 35 
9 49 90 91 92 93 94 95 96 36 
8 49 97 98 99 100 101 102 24 
8 30 103 104 105 106 107 108 36 
14 18 109 110 111 112 113 114 115 116 117 118 119 120 23 
10 48 121 122 123 124 125 126 127 128 27 
7 45 129 130 131 132 133 17 
12 45 134 135 136 137 138 139 140 141 142 143 44 
10 47 144 145 146 147 148 149 150 151 40 
3 47 152 42 
3 18 153 27 
4 46 154 155 17 
4 45 156 157 22 
12 44 158 159 160 161 162 163 164 165 166 167 16 
6 44 168 169 170 171 22 
12 43 172 173 174 175 176 177 178 179 180 181 35 
8 43 182 183 184 185 186 187 21 
8 43 188 189 190 191 192 193 21 
4 41 194 195 39 
3 41 196 40 
4 40 197 198 26 
6 39 199 200 201 202 34 
10 39 203 204 205 206 207 208 209 210 35 
5 38 211 212 213 32 
11 37 214 215 216 217 218 219 220 221 222 30 
3 30 223 31 
4 36 224 225 19 
3 18 226 28 
4 27 227 228 17 
5 34 229 230 231 26 
5 34 232 233 234 33 
5 33 235 236 237 24 
9 33 238 239 240 241 242 243 244 32 
4 24 245 246 31 
5 31 247 248 249 24 
4 30 250 251 20 
13 29 252 253 254 255 256 257 258 259 260 261 262 23 
4 27 263 264 18 
6 26 265 266 267 268 25 
4 23 269 270 11 
5 22 271 272 273 9 
6 21 274 275 276 277 13 
9 18 278 279 280 281 282 283 284 11 
3 17 285 15 
11 17 286 287 288 289 290 291 292 293 294 5 
8 16 295 296 297 298 299 300 13 
4 16 301 302 14 
9 14 303 304 305 306 307 308 309 13 
11 14 310 311 312 313 314 315 316 317 318 0 
5 9 319 320 321 8 
5 12 322 323 324 0 
3 10 326 9 
4 9 327 328 6 
3 6 338 2 
5 6 339 340 341 0 
3 5 342 4 
3 4 343 3 
5 4 344 345 346 3 
8 3 347 348 349 350 351 352 2 
4 2 353 354 1 
3 1 355 0 
5 1 356 357 358 0 
13 11 325 7 329 330 331 332 333 334 335 336 337 5 

POINT_DATA 359
FIELD FieldData 7
vox_ch1 1 359 double
3069.88 3007.36 3060.69 3119.49 3120.94 3181.47 3093.21 3182.99 3116.79 
3323.85 3216.06 3462.64 3197.99 3119.1 3318.8 3206.15 3231.33 3543.8 
3638.46 2979.17 2864.9 3154.62 3379.98 3462.12 3371.91 2977.72 3110.05 
3507.15 3505.65 2733.32 3263.68 3248.05 3078.74 3202.91 3372.75 2892.35 
3361.98 2869.67 3041.23 3226.75 3214.26 3165.62 2850.7 3050.17 3400.3 
3414.16 3349.23 3001.47 2904.56 3421.32 3208.26 3453.38 2929.98 3113.99 
2722.3 2615.83 2866.84 3000.16 3181.26 3386.89 2787.75 3002.88 2991.15 
2916.12 2891.11 2805.28 2741.99 2820.59 2825.25 2879.06 3245.02 3301.98 
3308.8 3322.67 3284.02 3222.21 3140.98 2902.59 2846.04 3029.63 3070.28 
3090.99 3270.3 3383.75 3168.57 3242.15 3288.43 3198.43 3160.42 3089.33 
3421.32 3437.99 3400.48 3399.75 3394.17 3421.43 3383.3 3348.47 3373.67 
3340.49 3345.09 3362.48 3379.96 3160.11 3079.05 3045.79 3038.63 3022.51 
3226.01 3392.23 3247.65 3134.85 3134.85 3120.57 3135.06 3079.9 3232.01 
3208.84 3400.25 3486.83 3515.52 3045.22 2982.86 3151 3151 3278.36 
3268.44 3338.77 3340.42 3505.11 3582.96 3574.81 3647.21 3599.56 3328.9 
3295.54 3301.31 3314.53 3311.38 3247.42 3290.27 3256.4 3343.2 3411.96 
3107.67 3022.4 2946.94 2973.4 2979.81 2998.52 3042.01 3177.77 2907.43 
3632.26 3447.51 3630.44 3439.79 3425.99 3414.53 3395.86 3391.64 3291.2 
3178.73 3195.9 3095.69 3096.79 3160.78 3220.1 3410.27 3311.98 3305.9 
3317.89 3008.2 2996.65 3014.01 3021.25 2999.2 3005.46 2959.98 2959.98 
2934.74 2926.84 3052.23 3081.83 3133.06 3238.21 3225.75 3284.86 3037.67 
2975.23 2974.89 2992.52 3040.96 3075.56 3175.35 3219.47 3204.23 3229.81 
3176.88 3240.89 3270.93 3292.58 3333.59 3085.86 2935.48 2924.96 2941.4 
2935.79 2952.56 2945.22 2931.99 3116.68 3131.42 3177.06 2751.17 2862.93 
2963 2954.16 3027.84 3023.38 3066.79 3091.28 3189.64 3260.79 3241.72 
3200.27 3516.59 3485.21 3575.02 3275.05 3160.15 3108.81 3399.64 3407.68 
3374.51 3222.1 3268.27 3331.46 3285.52 3225.21 3163.77 3132.64 3100.7 
3133.01 3136.74 3330.57 3298.84 3230.06 3135.59 3184.49 3171.47 3061.06 
2905.32 2996.78 3047.67 3064.2 3052.28 3176.48 3176.48 3277.75 3330.91 
3419.75 3419.75 3540.89 3663.74 3079.43 3008.63 3015.9 3054.47 3551.72 
3491.3 3319.88 3272.65 3295.98 3160.6 3147.01 3133.01 3142.67 3603.31 
3495.53 3453.99 3415.99 3384 3471.75 3543.93 3417.56 3372.72 3239 
3249.33 3319.84 3322.23 3198.31 3186.47 3189.19 3259.31 3186.65 3180.64 
3180.64 3204.32 3223.33 3157.3 3261.68 3338.06 3309.23 3220.02 3220.02 
3168.14 3062.4 3029.93 3052.06 3281.27 3293.86 3242.6 3228.21 3179.42 
3047.27 3054.06 2997.69 3051.75 3282.74 3299.3 3198.19 3188.47 3139.91 
3107.35 3237.84 3328.59 3277.77 3254.26 3122.53 3070.35 3030.19 3090.94 
3048.7 3122.14 3161.11 3191.85 3219.63 3141.69 3014.41 2960.63 2978.23 
3165.06 3119.49 3021.69 3012.15 3012.99 3067.95 3060.73 3060.73 3067.83 
3138.15 3138.15 3088.46 3088.46 3051.84 3020.94 3018.33 3069.56 
vox_ch2 1 359 double
2675.68 2695.07 2695.01 2649.88 2673.43 2757.1 2667.02 2799 2573.63 
2691.74 2705.23 2976.09 2632.49 2783.16 2804.26 2878.88 2769.1 3024.81 
3337.98 2588.48 2571.9 2801.96 2816.9 2991.93 2886.17 2623.57 2739.88 
3283.35 3063.54 2536.42 2911.65 2868.6 2656.74 2859.74 2797.07 2683.52 
2847.64 2555.9 2705.94 2734.6 2833.69 2787.42 2618.16 2722.35 2978.1 
3105.2 2905.12 2719.91 2716.4 2986.41 2782.32 3030.33 2753.09 2857.8 
2492.75 2450.43 2522.99 2620.67 2748.51 2873.75 2586.86 2693.6 2662.19 
2638.58 2529.72 2591.9 2551.51 2606.91 2655.06 2695.14 2916.65 2945.98 
2992.74 2985.77 2927.6 2832.88 2848.6 2630.2 2701.93 2715.06 2670.42 
2666.38 3054.53 3011.11 2779.19 2784.78 2795.57 2810.8 2698.93 2748.07 
2986.41 2963.44 2879.72 2867.49 2840.67 2853.32 2909.58 3047.79 3044.37 
3051.26 3028.43 2957.26 2921.38 2707 2629.89 2611.37 2614.68 2607.15 
2775.46 3260.33 3124.67 3022.79 3022.79 2989.59 2995.44 2989.6 2990.36 
2985.4 3066.84 3097.05 3078.37 2771.04 2793.14 2882.52 2882.52 3025.54 
3100.35 3191.11 3251.22 3107.02 3017.31 3042.38 3051.93 3000.43 3045.3 
2857.73 2774.7 2748.94 2799.41 2829.51 2791.37 2886 2942.2 2985.28 
2840.64 2801.74 2748.77 2768.4 2747.15 2772.49 2785.02 2839.43 2640.01 
3302.31 2925.89 3009.64 3061.02 2879.49 2968.28 2912.73 2954.8 2794.4 
2758.31 2748.9 2746.06 2788.99 2801.27 2859.68 2855.19 2798.37 2785.98 
2789.75 2616.12 2599.8 2633.12 2581.22 2632.43 2606.59 2611.26 2611.26 
2645.93 2689.56 2732.54 2800.37 2819.09 2812.77 2764.9 2872.09 2723.89 
2716.02 2764.77 2714.86 2712.58 2759.22 2794.06 2718.36 2841.85 2819.27 
2805.7 2685.28 2707.58 2733.52 2740.36 2652.44 2622.12 2574.17 2580.98 
2571.2 2577.69 2592.48 2674.59 2711.9 2706.53 2683.41 2512.96 2556.58 
2640.75 2646.75 2748.54 2782.3 2820.62 2888.17 2970.22 2925.19 2736.88 
2708.52 3127.1 3208 3156.72 2784.4 2753.09 2708.6 2803.51 2803.68 
2859.86 2845.88 2861.9 2846.12 2868.51 2842.51 2759.59 2728.22 2650.38 
2661.72 2639.06 2896 2864.62 2837.1 2820.05 2824.25 2821.79 2719.86 
2618.38 2708.72 2690.7 2730.44 2798.86 2831.94 2831.94 2896.63 3006.49 
3030.6 3030.6 3262.26 3358.47 2706.44 2718.42 2688.83 2667.1 3063.51 
3059.74 2847.78 2803.3 2746.57 2778.9 2820.05 2786.51 2777.79 3323.46 
3193.01 3065.85 2965.73 2945.14 2938.62 2946.62 3063.05 3027.52 2909.85 
2874.63 2844.04 2885.37 2811.21 2829.72 2787.59 2783.72 2796.46 2824.49 
2824.49 2854.85 2843.9 2786.42 2850.38 2812.32 2843.9 2873.91 2873.91 
2854.31 2784.22 2767.7 2793.56 2855.93 2853.98 2759.17 2734.31 2700.4 
2669.99 2629.65 2633.06 2659.19 2676.04 2695.59 2638.95 2647.56 2638.57 
2636.73 2869.16 2728.73 2695.14 2681.6 2727.4 2677.88 2645.25 2635.12 
2664.06 2727 2749.3 2756.95 2777.16 2707.01 2615.6 2601.09 2619.77 
2743.23 2649.88 2617.62 2595.58 2599.54 2645.01 2685.85 2685.85 2714.35 
2758.78 2758.78 2755.22 2755.22 2692.64 2674.95 2648.84 2659 
background_sub_ch2 1 359 double
226.247 245.642 245.58 200.444 224 307.667 217.593 349.568 124.198 
242.309 255.802 526.654 183.062 333.728 354.827 429.444 319.667 575.383 
888.543 139.049 122.469 352.531 367.469 542.494 436.741 174.136 290.444 
833.914 614.111 86.9877 462.222 419.173 207.309 410.309 347.642 234.086 
398.21 106.469 256.506 285.173 384.259 337.988 168.728 272.914 528.667 
655.765 455.691 270.481 266.963 536.975 332.889 580.901 303.654 408.37 
43.321 1 73.5556 171.235 299.074 424.321 137.432 244.173 212.753 
189.148 80.284 142.469 102.074 157.481 205.63 245.704 467.222 496.543 
543.309 536.333 478.173 383.444 399.173 180.765 252.494 265.63 220.988 
216.951 605.099 561.679 329.753 335.346 346.136 361.37 249.494 298.642 
536.975 514.012 430.284 418.062 391.235 403.889 460.148 598.358 594.938 
601.827 579 507.827 471.951 257.568 180.457 161.938 165.247 157.716 
326.025 810.901 675.235 573.358 573.358 540.16 546.012 540.173 540.926 
535.963 617.407 647.617 628.938 321.605 343.704 433.086 433.086 576.111 
650.914 741.679 801.79 657.593 567.877 592.951 602.494 551 595.864 
408.296 325.272 299.506 349.975 380.074 341.938 436.568 492.765 535.852 
391.21 352.309 299.333 318.963 297.716 323.062 335.593 390 190.58 
852.877 476.457 560.21 611.593 430.062 518.852 463.296 505.37 344.963 
308.877 299.469 296.63 339.556 351.84 410.247 405.753 348.938 336.543 
340.321 166.691 150.37 183.691 131.79 183 157.16 161.827 161.827 
196.494 240.123 283.111 350.938 369.654 363.333 315.469 422.654 274.457 
266.593 315.333 265.432 263.148 309.79 344.63 268.926 392.42 369.84 
356.272 235.852 258.148 284.086 290.926 203.012 172.691 124.741 131.543 
121.765 128.259 143.049 225.16 262.469 257.099 233.975 63.5309 107.148 
191.321 197.321 299.111 332.864 371.185 438.741 520.79 475.753 287.444 
259.086 677.667 758.568 707.284 334.963 303.654 259.173 354.074 354.247 
410.432 396.444 412.469 396.691 419.074 393.074 310.16 278.79 200.951 
212.284 189.63 446.568 415.185 387.667 370.617 374.815 372.358 270.432 
168.951 259.284 241.272 281.012 349.432 382.506 382.506 447.198 557.062 
581.173 581.173 812.827 909.037 257.012 268.988 239.395 217.667 614.074 
610.309 398.346 353.864 297.136 329.469 370.617 337.074 328.358 874.025 
743.58 616.42 516.296 495.704 489.185 497.185 613.617 578.086 460.42 
425.198 394.605 435.938 361.778 380.284 338.16 334.284 347.025 375.062 
375.062 405.42 394.469 336.988 400.951 362.889 394.469 424.481 424.481 
404.877 334.79 318.272 344.123 406.494 404.543 309.741 284.877 250.963 
220.556 180.222 183.63 209.753 226.605 246.16 189.519 198.123 189.136 
187.296 419.728 279.296 245.704 232.173 277.963 228.444 195.815 185.691 
214.63 277.568 299.864 307.519 327.728 257.58 166.173 151.654 170.333 
293.802 200.444 168.185 146.148 150.111 195.58 236.42 236.42 264.914 
309.346 309.346 305.79 305.79 243.21 225.519 199.407 209.568 
background_sub_ch1 1 359 double
454.049 391.531 444.864 503.667 505.111 565.642 477.383 567.16 500.963 
708.025 600.235 846.815 582.16 503.272 702.975 590.321 615.506 927.975 
1022.63 363.346 249.074 538.79 764.148 846.296 756.086 361.889 494.222 
891.321 889.827 117.494 647.852 632.222 462.914 587.086 756.926 276.519 
746.148 253.84 425.407 610.926 598.432 549.79 234.877 434.346 784.469 
798.333 733.407 385.642 288.728 805.494 592.432 837.556 314.148 498.16 
106.469 0 251.012 384.333 565.432 771.062 171.926 387.049 375.321 
300.296 275.284 189.457 126.16 204.765 209.42 263.235 629.198 686.148 
692.975 706.84 668.198 606.383 525.148 286.765 230.21 413.802 454.457 
475.16 654.469 767.926 552.741 626.321 672.605 582.605 544.593 473.506 
805.494 822.16 784.654 783.926 778.346 805.605 767.469 732.642 757.84 
724.667 729.259 746.654 764.136 544.284 463.222 429.963 422.802 406.679 
610.185 776.407 631.827 519.025 519.025 504.741 519.235 464.074 616.185 
593.012 784.42 871 899.691 429.395 367.037 535.173 535.173 662.531 
652.617 722.938 724.593 889.284 967.136 958.988 1031.38 983.728 713.074 
679.716 685.481 698.704 695.556 631.593 674.444 640.568 727.37 796.136 
491.84 406.568 331.111 357.568 363.988 382.691 426.185 561.938 291.605 
1016.43 831.679 1014.62 823.963 810.16 798.704 780.037 775.815 675.37 
562.901 580.074 479.864 480.963 544.951 604.272 794.444 696.148 690.074 
702.062 392.37 380.827 398.185 405.42 383.37 389.63 344.148 344.148 
318.914 311.012 436.407 466 517.235 622.383 609.926 669.037 421.84 
359.407 359.062 376.691 425.136 459.728 559.519 603.642 588.407 613.988 
561.049 625.062 655.099 676.753 717.765 470.037 319.654 309.136 325.568 
319.963 336.728 329.395 316.16 500.852 515.593 561.235 135.346 247.099 
347.173 338.333 412.012 407.556 450.963 475.457 573.815 644.963 625.889 
584.444 900.765 869.383 959.198 659.222 544.321 492.988 783.815 791.852 
758.679 606.272 652.444 715.63 669.691 609.383 547.938 516.815 484.877 
517.185 520.914 714.741 683.012 614.235 519.765 568.667 555.642 445.235 
289.494 380.951 431.84 448.37 436.457 560.654 560.654 661.926 715.086 
803.926 803.926 925.062 1047.91 463.605 392.802 400.074 438.642 935.889 
875.469 704.049 656.827 680.148 544.778 531.185 517.185 526.84 987.481 
879.704 838.16 800.16 768.173 855.926 928.099 801.728 756.889 623.173 
633.506 704.012 706.407 582.481 570.642 573.358 643.481 570.827 564.815 
564.815 588.494 607.506 541.469 645.852 722.235 693.407 604.198 604.198 
552.309 446.568 414.099 436.235 665.444 678.037 626.778 612.383 563.593 
431.444 438.235 381.864 435.926 666.914 683.469 582.358 572.642 524.086 
491.519 622.012 712.765 661.938 638.432 506.704 454.519 414.358 475.111 
432.877 506.309 545.284 576.025 603.802 525.864 398.58 344.802 362.407 
549.235 503.667 405.864 396.321 397.16 452.123 444.901 444.901 452 
522.321 522.321 472.63 472.63 436.012 405.111 402.506 453.728 
width_equivalent 1 359 double
226.247 245.642 245.58 200.444 224 307.667 217.593 349.568 124.198 
242.309 255.802 526.654 183.062 333.728 354.827 429.444 319.667 575.383 
888.543 139.049 122.469 352.531 367.469 542.494 436.741 174.136 290.444 
833.914 614.111 86.9877 462.222 419.173 207.309 410.309 347.642 234.086 
398.21 106.469 256.506 285.173 384.259 337.988 168.728 272.914 528.667 
655.765 455.691 270.481 266.963 536.975 332.889 580.901 303.654 408.37 
43.321 1 73.5556 171.235 299.074 424.321 137.432 244.173 212.753 
189.148 80.284 142.469 102.074 157.481 205.63 245.704 467.222 496.543 
543.309 536.333 478.173 383.444 399.173 180.765 252.494 265.63 220.988 
216.951 605.099 561.679 329.753 335.346 346.136 361.37 249.494 298.642 
536.975 514.012 430.284 418.062 391.235 403.889 460.148 598.358 594.938 
601.827 579 507.827 471.951 257.568 180.457 161.938 165.247 157.716 
326.025 810.901 675.235 573.358 573.358 540.16 546.012 540.173 540.926 
535.963 617.407 647.617 628.938 321.605 343.704 433.086 433.086 576.111 
650.914 741.679 801.79 657.593 567.877 592.951 602.494 551 595.864 
408.296 325.272 299.506 349.975 380.074 341.938 436.568 492.765 535.852 
391.21 352.309 299.333 318.963 297.716 323.062 335.593 390 190.58 
852.877 476.457 560.21 611.593 430.062 518.852 463.296 505.37 344.963 
308.877 299.469 296.63 339.556 351.84 410.247 405.753 348.938 336.543 
340.321 166.691 150.37 183.691 131.79 183 157.16 161.827 161.827 
196.494 240.123 283.111 350.938 369.654 363.333 315.469 422.654 274.457 
266.593 315.333 265.432 263.148 309.79 344.63 268.926 392.42 369.84 
356.272 235.852 258.148 284.086 290.926 203.012 172.691 124.741 131.543 
121.765 128.259 143.049 225.16 262.469 257.099 233.975 63.5309 107.148 
191.321 197.321 299.111 332.864 371.185 438.741 520.79 475.753 287.444 
259.086 677.667 758.568 707.284 334.963 303.654 259.173 354.074 354.247 
410.432 396.444 412.469 396.691 419.074 393.074 310.16 278.79 200.951 
212.284 189.63 446.568 415.185 387.667 370.617 374.815 372.358 270.432 
168.951 259.284 241.272 281.012 349.432 382.506 382.506 447.198 557.062 
581.173 581.173 812.827 909.037 257.012 268.988 239.395 217.667 614.074 
610.309 398.346 353.864 297.136 329.469 370.617 337.074 328.358 874.025 
743.58 616.42 516.296 495.704 489.185 497.185 613.617 578.086 460.42 
425.198 394.605 435.938 361.778 380.284 338.16 334.284 347.025 375.062 
375.062 405.42 394.469 336.988 400.951 362.889 394.469 424.481 424.481 
404.877 334.79 318.272 344.123 406.494 404.543 309.741 284.877 250.963 
220.556 180.222 183.63 209.753 226.605 246.16 189.519 198.123 189.136 
187.296 419.728 279.296 245.704 232.173 277.963 228.444 195.815 185.691 
214.63 277.568 299.864 307.519 327.728 257.58 166.173 151.654 170.333 
293.802 200.444 168.185 146.148 150.111 195.58 236.42 236.42 264.914 
309.346 309.346 305.79 305.79 243.21 225.519 199.407 209.568 
norm_scaled 1 359 double
0.49754 0.395158 0.449098 0.622955 0.559044 0.455794 0.543914 0.402237 1 
0.724414 0.581733 0.39863 0.788411 0.373867 0.491169 0.340791 0.477356 0.399841 
0.28533 0.647826 0.504207 0.378905 0.515542 0.386754 0.429195 0.515222 0.421858 
0.264984 0.359225 0.334861 0.347482 0.373925 0.553592 0.354731 0.539795 0.292857 
0.464537 0.591075 0.411164 0.531114 0.386098 0.403277 0.345111 0.394564 0.367876 
0.301817 0.399008 0.353471 0.26813 0.371891 0.441211 0.357453 0.256485 0.302428 
0.609302 0 0.846032 0.556447 0.468715 0.450507 0.310142 0.392985 0.437355 
0.3936 0.850079 0.329683 0.306419 0.322355 0.252487 0.265606 0.333865 0.342585 
0.316212 0.326733 0.346439 0.392059 0.326158 0.393295 0.226038 0.38621 0.509838 
0.542984 0.268145 0.338952 0.415566 0.463033 0.481749 0.399695 0.541152 0.393081 
0.371891 0.396543 0.452096 0.464881 0.493222 0.494501 0.413495 0.303555 0.3158 
0.29852 0.312256 0.364511 0.401404 0.523891 0.63639 0.658247 0.634325 0.639268 
0.464001 0.237372 0.23198 0.224424 0.224424 0.231661 0.235759 0.212991 0.28241 
0.274307 0.314981 0.333432 0.354644 0.33101 0.264748 0.306356 0.306356 0.285107 
0.248566 0.241653 0.224048 0.335267 0.422222 0.400961 0.424399 0.44262 0.296684 
0.412724 0.522465 0.578355 0.492722 0.41198 0.488997 0.363765 0.365951 0.368341 
0.311689 0.2861 0.274237 0.277924 0.303104 0.293677 0.314842 0.357216 0.379336 
0.295461 0.432752 0.449013 0.334005 0.467033 0.381636 0.417411 0.380588 0.485374 
0.451809 0.480218 0.401062 0.351163 0.38399 0.365169 0.48541 0.494607 0.508349 
0.511439 0.583567 0.627875 0.537407 0.762657 0.519368 0.614633 0.527232 0.527232 
0.402375 0.321107 0.382158 0.329202 0.346896 0.424678 0.479322 0.392439 0.381049 
0.334231 0.282297 0.351835 0.40053 0.36791 0.402503 0.556486 0.371736 0.411579 
0.390416 0.657039 0.629137 0.590591 0.611656 0.574007 0.458899 0.614396 0.613593 
0.651453 0.650876 0.570872 0.348115 0.473084 0.49718 0.594678 0.528162 0.571733 
0.449874 0.425088 0.341496 0.303548 0.301202 0.268665 0.27316 0.336094 0.539822 
0.55925 0.329536 0.284134 0.336218 0.487913 0.444409 0.471578 0.548816 0.554173 
0.458273 0.379134 0.392157 0.447242 0.396179 0.384347 0.437978 0.459584 0.598204 
0.603999 0.681031 0.396797 0.407844 0.392811 0.347687 0.376139 0.369949 0.408167 
0.424802 0.364251 0.443735 0.395566 0.30966 0.363383 0.363383 0.366959 0.318246 
0.34294 0.34294 0.28215 0.285793 0.4472 0.362034 0.414317 0.499604 0.377843 
0.35563 0.438178 0.460174 0.567487 0.409932 0.355327 0.380389 0.397776 0.2801 
0.293303 0.337099 0.384225 0.384188 0.433781 0.462789 0.323919 0.324599 0.335554 
0.369375 0.442308 0.401733 0.399161 0.372017 0.420349 0.47723 0.407804 0.373345 
0.373345 0.359869 0.381808 0.398352 0.399346 0.493415 0.435796 0.35288 0.35288 
0.338195 0.330691 0.322562 0.314277 0.40585 0.415524 0.501675 0.532934 0.556754 
0.484969 0.602845 0.515553 0.515243 0.729638 0.688348 0.761808 0.716563 0.686968 
0.650606 0.367399 0.632687 0.667903 0.681727 0.451933 0.493263 0.524611 0.634324 
0.500013 0.452224 0.450822 0.464384 0.45676 0.506137 0.594652 0.563667 0.527479 
0.463457 0.622955 0.598274 0.672297 0.655935 0.573112 0.466538 0.466538 0.423001 
0.418601 0.418601 0.383182 0.383182 0.444452 0.445348 0.500425 0.536758 
norm_unscaled 1 359 double
2.00688 1.59391 1.81148 2.51275 2.25496 1.83849 2.19393 1.62246 4.0336 
2.922 2.34648 1.60791 3.18013 1.50803 1.98118 1.37462 1.92546 1.6128 
1.15091 2.61307 2.03377 1.52835 2.07949 1.56001 1.7312 2.0782 1.70161 
1.06884 1.44897 1.3507 1.4016 1.50826 2.23297 1.43084 2.17731 1.18127 
1.87376 2.38416 1.65847 2.1423 1.55737 1.62666 1.39204 1.59151 1.48386 
1.21741 1.60944 1.42576 1.08153 1.50006 1.77967 1.44182 1.03456 1.21987 
2.45768 0 3.41255 2.24448 1.89061 1.81717 1.25099 1.58515 1.76412 
1.58762 3.42888 1.32981 1.23597 1.30025 1.01843 1.07135 1.34668 1.38185 
1.27547 1.31791 1.3974 1.58141 1.31559 1.5864 0.911745 1.55782 2.05648 
2.19018 1.08159 1.3672 1.67623 1.86769 1.94318 1.61221 2.18279 1.58553 
1.50006 1.5995 1.82357 1.87514 1.98946 1.99462 1.66787 1.22442 1.27381 
1.20411 1.25952 1.47029 1.6191 2.11317 2.56694 2.6551 2.55861 2.57855 
1.87159 0.957462 0.935715 0.905237 0.905237 0.934427 0.950958 0.859121 1.13913 
1.10644 1.27051 1.34493 1.43049 1.33516 1.06789 1.23572 1.23572 1.15001 
1.00262 0.974732 0.903719 1.35233 1.70307 1.61731 1.71186 1.78535 1.19671 
1.66476 2.10741 2.33285 1.98744 1.66176 1.97242 1.46728 1.4761 1.48574 
1.25723 1.15401 1.10616 1.12103 1.2226 1.18458 1.26995 1.44087 1.53009 
1.19177 1.74555 1.81114 1.34724 1.88382 1.53937 1.68367 1.53514 1.95781 
1.82241 1.93701 1.61772 1.41645 1.54886 1.47295 1.95795 1.99505 2.05048 
2.06294 2.35387 2.53259 2.16769 3.07625 2.09492 2.47918 2.12664 2.12664 
1.62302 1.29522 1.54147 1.32787 1.39924 1.71298 1.93339 1.58294 1.537 
1.34815 1.13867 1.41916 1.61558 1.484 1.62354 2.24464 1.49943 1.66015 
1.57478 2.65023 2.53769 2.38221 2.46718 2.31531 1.85102 2.47823 2.47499 
2.6277 2.62537 2.30267 1.40416 1.90823 2.00543 2.39869 2.13039 2.30614 
1.81461 1.71463 1.37746 1.22439 1.21493 1.08369 1.10182 1.35567 2.17743 
2.25579 1.32922 1.14608 1.35617 1.96805 1.79257 1.90216 2.2137 2.23531 
1.84849 1.52927 1.5818 1.804 1.59803 1.5503 1.76663 1.85378 2.41291 
2.43629 2.74701 1.60052 1.64508 1.58444 1.40243 1.51719 1.49223 1.64638 
1.71348 1.46924 1.78985 1.59555 1.24905 1.46574 1.46574 1.48016 1.28368 
1.38328 1.38328 1.13808 1.15277 1.80382 1.4603 1.67119 2.0152 1.52407 
1.43447 1.76743 1.85616 2.28901 1.6535 1.43324 1.53434 1.60447 1.12981 
1.18306 1.35972 1.54981 1.54966 1.7497 1.86671 1.30656 1.3093 1.35349 
1.48991 1.78409 1.62043 1.61005 1.50057 1.69552 1.92495 1.64492 1.50592 
1.50592 1.45157 1.54006 1.60679 1.6108 1.99024 1.75782 1.42338 1.42338 
1.36414 1.33387 1.30109 1.26767 1.63703 1.67606 2.02356 2.14964 2.24572 
1.95617 2.43163 2.07953 2.07828 2.94307 2.77652 3.07283 2.89033 2.77095 
2.62428 1.48194 2.552 2.69405 2.74981 1.82292 1.98962 2.11607 2.55861 
2.01685 1.82409 1.81844 1.87314 1.84239 2.04155 2.39859 2.27361 2.12764 