# vtk DataFile Version 4.0
vtk output
ASCII
DATASET POLYDATA
POINTS 359 float
7.28444 5.65889 3.86667 7.26 5.445 4 7.425 5.28 4 
7.48 4.895 4 7.535 4.785 4 7.68167 4.65667 3.86667 
7.55333 5.35333 3.8 7.8804 4.0304 3.72531 7.7 5.61 3.4 
7.81 5.335 3.3 7.81 5.17 3.4 8.06667 3.94167 3.26667 
7.535 5.775 3.2 7.22333 6.72833 2.86667 7.26 6.27 3 
8.195 5.06 3 7.425 6.435 2.8 8.26833 4.93167 2.6 
8.2775 4.4275 2.3 6.655 9.845 2.6 6.435 9.845 2.6 
6.93 7.04 2.6 8.06667 5.51833 2.46667 8.14 3.74 2.6 
6.33 9.355 2.27273 5.83 8.855 2.4 5.995 8.58 2.4 
8.14 4.66125 2.25 8.415 4.235 2.4 7.865 3.08 2.4 
6.255 9.85 1.87273 6.27 9.625 2.2 5.72 9.295 2.1 
6.16 9.02 2.2 6.25167 8.76333 2.2 6.325 7.975 2.2 
6.71 9.955 2 5.61 9.625 2 5.885 9.57 2 
6.27 8.47 2 5.94 8.3875 1.95 6.105 8.305 2 
5.995 7.755 2 6.765 7.37 2 7.81 5.83 2 
8.17667 5.31667 1.86667 8.415 4.785 2 5.995 7.865 1.8 
7.81 5.225 1.8 6.82 9.515 1.6 6.16 8.03 1.53333 
6.94833 9.36833 1.13333 6.82 9.24 1.2 5.555 8.91 1.1 
6.325 7.975 1 6.215 7.81 1 7.205 9.405 0.8 
7.14993 9.40493 0.834568 7.09357 9.40357 0.898765 7.02933 9.39433 1.00247 
6.17601 7.86715 1.18765 6.16215 7.93601 1.36543 6.2541 8.0141 1.2642 
5.6447 9.00399 0.888889 5.68563 9.07264 0.72963 5.6606 9.1256 0.648148 
5.61 9.15277 0.637037 5.55919 9.1256 0.685185 5.53008 9.07264 0.781481 
5.54329 9.00399 0.925926 5.60785 8.81601 1.21481 5.64899 8.74715 1.30741 
5.665 8.69011 1.37407 5.68101 8.635 1.42963 5.72226 8.57995 1.50926 
5.77726 8.52393 1.62778 5.84601 8.462 1.78148 5.52986 8.965 1.34074 
5.54329 9.02 1.54444 5.55532 9.07511 1.6963 5.57315 9.13215 1.81852 
5.62815 9.20101 1.94815 6.8803 9.3003 1.16049 6.8803 9.4494 1.3679 
6.14614 8.12399 1.57284 6.11896 8.19285 1.66173 6.10704 8.24989 1.81235 
6.0659 7.9359 1.6642 6.215 7.99101 1.76543 6.27 7.97715 1.98765 
6.85899 9.57 1.60741 6.87285 9.625 1.62963 6.87478 9.68 1.67407 
6.87285 9.735 1.73333 6.85889 9.79 1.8 6.81785 9.845 1.86667 
6.76489 9.9 1.93333 6.765 9.4759 1.72593 6.71 9.46011 1.83704 
6.655 9.44614 1.91852 6.59979 9.41887 1.98047 6.5409 9.40509 2.0431 
6.45944 9.39056 2.14141 6.35963 9.97729 1.80808 6.43227 10.0447 1.77643 
6.48986 10.0605 1.78047 6.545 10.0489 1.8 6.6 10.01 1.83704 
6.655 9.9709 1.9037 8.20311 4.392 1.96296 8.14322 4.34393 1.73704 
8.10117 4.28995 1.65556 8.08726 4.235 1.67407 8.08715 4.18 1.72593 
8.09907 4.125 1.77778 8.12808 4.07 1.82222 8.15192 4.015 1.88148 
8.18093 3.96 1.96296 8.19285 3.905 2.08148 8.19274 3.85 2.22963 
8.17899 3.795 2.40741 7.81215 5.17 1.8 7.82601 5.115 1.8 
7.86511 5.06 1.8 7.90603 5.005 1.80741 7.93192 4.95 1.82963 
7.96318 4.89487 1.88333 7.99122 4.83731 1.97222 8.04805 4.76499 2.1 
8.24252 5.23567 1.93086 8.28828 5.17143 1.98272 8.30468 5.11504 2.03951 
8.31528 5.05928 2.14815 8.31947 4.99966 2.34074 8.09567 5.33181 1.73827 
8.03143 5.3504 1.64938 7.97518 5.39211 1.60988 7.92204 5.44511 1.6 
7.87896 5.5 1.6 7.85125 5.555 1.60741 7.81215 5.61 1.62963 
7.78497 5.665 1.68148 7.79818 5.72 1.76296 7.80807 5.775 1.87407 
5.94011 7.92 1.9037 5.88726 7.975 1.99259 5.84805 8.03 2.05926 
5.84418 8.085 2.0963 5.85922 8.14 2.0963 5.856 8.19505 2.06481 
5.87512 8.25107 2.02037 5.89907 8.313 1.98148 5.995 7.81 1.9037 
8.20295 4.55308 2.26481 8.39756 4.83928 2.14074 8.34718 4.88967 2.34074 
8.17294 5.38538 2.07654 8.1318 5.44962 2.27654 7.79604 5.885 2.02963 
7.76682 5.94 2.08148 7.74093 5.995 2.15556 7.69796 6.05 2.24444 
7.645 6.105 2.31852 7.59215 6.16 2.37037 7.55101 6.215 2.4 
7.535 6.27 2.43704 7.51899 6.325 2.51111 7.47785 6.38 2.63704 
7.865 5.775 2.19259 7.91996 5.71993 2.35802 7.97428 5.66357 2.4642 
8.02466 5.59933 2.49383 6.71 7.425 2.06667 6.655 7.48 2.12593 
6.60011 7.535 2.17037 6.54715 7.59 2.19259 6.50601 7.645 2.19259 
6.49011 7.7 2.17778 6.47604 7.755 2.15556 6.44682 7.81 2.14815 
6.42093 7.865 2.15556 6.37796 7.92 2.17778 6.82 7.35399 1.91111 
6.87489 7.31285 1.87407 6.92785 7.25989 1.91852 6.96878 7.205 2.03704 
6.9807 7.15 2.20741 6.96889 7.095 2.4 6.75125 7.315 2.19259 
6.72611 7.26 2.36296 6.72815 7.205 2.48889 6.76726 7.15011 2.56296 
6.82011 7.09715 2.59259 6.875 7.05601 2.6 6.16 8.36 1.94074 
6.215 8.415 1.94074 6.0341 8.35205 1.97593 5.95386 8.462 2.10741 
5.98114 8.52393 2.25741 6.28386 8.525 2.02963 6.31089 8.58004 2.07407 
6.32009 8.63572 2.12593 6.30355 8.69534 2.17037 6.32296 8.415 2.18519 
6.36593 8.36 2.33333 6.39182 8.305 2.40741 6.42093 8.25 2.41481 
6.43285 8.195 2.37037 6.43274 8.14 2.32593 6.41889 8.085 2.28148 
6.37785 8.03 2.24444 5.88274 9.51489 2.0037 5.86674 9.45785 2.01852 
5.81185 9.38899 2.05185 5.665 9.68 2 5.72 9.735 2 
5.775 9.79 2.00741 5.83 9.84489 2.02222 5.885 9.89774 2.04444 
5.94 9.93685 2.05185 5.99519 9.93879 2.03973 6.05371 9.9119 1.99865 
6.13265 9.88749 1.94141 6.24246 9.71324 2.04242 6.67101 9.91386 2.2 
6.65715 9.88614 2.4 8.37525 4.31385 2.35185 8.15672 4.76642 2.38889 
8.20248 4.84799 2.50556 6.17067 8.70919 2.2963 6.10643 8.67675 2.36296 
6.05007 8.63299 2.39259 6.2507 8.84433 2.2 6.2261 8.90857 2.2 
6.201 8.96493 2.2 6.2149 9.07522 2.20269 6.26805 9.13449 2.21347 
6.31045 9.21847 2.23771 6.105 9.01807 2.2 6.05 9.00818 2.2 
5.995 8.99508 2.20741 5.94 9.02419 2.22222 5.885 9.07532 2.24074 
5.83 9.13215 2.23333 5.775 9.20101 2.18519 6.32431 9.48444 2.17845 
6.30919 9.5659 2.15421 6.21748 9.5699 2.35084 6.18275 9.51305 2.42828 
6.21162 9.44545 2.39327 6.32064 9.80961 2.16364 6.37941 9.80835 2.40606 
7.86715 3.135 2.4 7.88101 3.19 2.40741 7.92 3.245 2.42963 
7.9591 3.3 2.46667 7.975 3.355 2.4963 7.9909 3.41 2.5037 
8.03 3.465 2.48889 8.0691 3.52 2.47407 8.08489 3.575 2.46667 
8.09886 3.63 2.48148 8.12614 3.685 2.52593 8.15708 4.57593 2.39259 
8.20515 4.50361 2.40926 5.94215 8.635 2.32593 5.90101 8.69 2.28889 
5.885 8.745 2.2963 5.8691 8.8 2.34074 8.10029 3.79643 2.81235 
8.08181 3.86067 3.03457 8.02456 5.45238 2.6679 7.97214 5.40468 2.8679 
7.90396 5.37618 3.07654 6.985 6.985 2.62963 7.04004 6.92993 2.67654 
7.09572 6.87357 2.73827 7.15534 6.80933 2.80494 8.19183 4.353 2.60741 
8.17244 4.29107 2.83333 8.15219 4.23505 2.95185 8.14193 4.18 3 
8.13996 4.12496 3.0321 8.13714 4.06928 3.08642 8.11866 4.00967 3.1679 
8.2162 4.9997 2.8 8.20034 4.89171 2.86667 8.14072 4.85336 3.08148 
8.08504 4.82804 3.22963 8.03 4.79714 3.32593 7.975 4.77501 3.4 
7.92 4.756 3.46667 7.86496 4.75897 3.5358 7.80928 4.73917 3.61975 
7.74966 4.71059 3.73086 7.46389 6.49 2.7037 7.4757 6.545 2.63704 
7.46378 6.6 2.61481 7.42278 6.65482 2.6321 7.36846 6.70642 2.68642 
7.30433 6.73832 2.7679 7.37 6.38 2.83704 7.315 6.325 2.9037 
7.20715 6.325 3.11852 7.16611 6.38 3.20741 7.15215 6.435 3.24444 
7.15011 6.49 3.24444 7.15014 6.54504 3.20988 7.15286 6.60072 3.14568 
7.17134 6.66034 3.02716 7.20715 6.215 3.2 7.16601 6.16 3.39259 
7.15021 6.105 3.57037 7.13808 6.05 3.71852 7.12078 5.995 3.83704 
7.12218 5.94 3.91852 7.09548 5.88488 3.96543 7.07726 5.82761 3.9679 
7.13842 5.75722 3.93086 7.75715 5.42899 3.25185 7.71611 5.49785 3.25556 
7.70215 5.55489 3.31481 7.47994 5.77477 3.37284 7.42381 5.77046 3.53827 
7.36111 5.74121 3.70123 7.97181 3.97271 3.5142 7.81 5.2409 3.35185 
7.71457 5.31058 3.45185 7.63648 5.32863 3.61852 7.81222 4.11111 3.87284 
7.75726 4.17796 3.95 7.71601 4.23489 3.96111 7.70011 4.29 3.92593 
7.68614 4.345 3.87407 7.65896 4.4 3.82963 7.64711 4.45507 3.80988 
7.64654 4.51143 3.81235 7.65567 4.57567 3.83457 7.4853 5.3012 3.8963 
7.53791 5.43442 3.80247 7.51411 5.50048 3.81235 7.43698 5.56916 3.83457 
7.6006 4.7247 3.9358 7.5191 4.84 4 7.48226 4.76201 4.12593 
7.44326 4.7893 4.17778 7.44315 4.84021 4.12593 7.42715 4.95 4.03704 
7.38611 5.005 4.05185 7.37215 5.06 4.04444 7.37021 5.115 4.02222 
7.37215 5.17 4.00741 7.38601 5.225 4 7.37 5.335 4 
7.315 5.39 4 7.29027 5.53003 3.9358 7.20741 5.49999 3.99506 
7.17137 5.55476 3.97531 7.19127 5.60822 3.93086 
LINES 73 522
5 56 57 58 59 51 
4 55 60 61 50 
3 54 62 50 
9 53 63 64 65 66 67 68 69 53 
9 53 70 71 72 73 74 75 76 40 
7 53 77 78 79 80 81 32 
3 52 82 51 
3 51 83 49 
5 50 84 85 86 41 
3 50 87 47 
4 50 88 89 35 
9 49 90 91 92 93 94 95 96 36 
8 49 97 98 99 100 101 102 24 
8 30 103 104 105 106 107 108 36 
14 18 109 110 111 112 113 114 115 116 117 118 119 120 23 
10 48 121 122 123 124 125 126 127 128 27 
7 45 129 130 131 132 133 17 
12 45 134 135 136 137 138 139 140 141 142 143 44 
10 47 144 145 146 147 148 149 150 151 40 
3 47 152 42 
3 18 153 27 
4 46 154 155 17 
4 45 156 157 22 
12 44 158 159 160 161 162 163 164 165 166 167 16 
6 44 168 169 170 171 22 
12 43 172 173 174 175 176 177 178 179 180 181 35 
8 43 182 183 184 185 186 187 21 
8 43 188 189 190 191 192 193 21 
4 41 194 195 39 
3 41 196 40 
4 40 197 198 26 
6 39 199 200 201 202 34 
10 39 203 204 205 206 207 208 209 210 35 
5 38 211 212 213 32 
11 37 214 215 216 217 218 219 220 221 222 30 
3 30 223 31 
4 36 224 225 19 
3 18 226 28 
4 27 227 228 17 
5 34 229 230 231 26 
5 34 232 233 234 33 
5 33 235 236 237 24 
9 33 238 239 240 241 242 243 244 32 
4 24 245 246 31 
5 31 247 248 249 24 
4 30 250 251 20 
13 29 252 253 254 255 256 257 258 259 260 261 262 23 
4 27 263 264 18 
6 26 265 266 267 268 25 
4 23 269 270 11 
5 22 271 272 273 9 
6 21 274 275 276 277 13 
9 18 278 279 280 281 282 283 284 11 
3 17 285 15 
11 17 286 287 288 289 290 291 292 293 294 5 
8 16 295 296 297 298 299 300 13 
4 16 301 302 14 
9 14 303 304 305 306 307 308 309 13 
11 14 310 311 312 313 314 315 316 317 318 0 
5 9 319 320 321 8 
5 12 322 323 324 0 
3 10 326 9 
4 9 327 328 6 
3 6 338 2 
5 6 339 340 341 0 
3 5 342 4 
3 4 343 3 
5 4 344 345 346 3 
8 3 347 348 349 350 351 352 2 
4 2 353 354 1 
3 1 355 0 
5 1 356 357 358 0 
13 11 325 7 329 330 331 332 333 334 335 336 337 5 

POINT_DATA 359
FIELD FieldData 7
vox_ch1 1 359 double
3069.88 3007.36 3060.69 3119.49 3120.94 3181.47 3093.21 3182.99 3116.79 
3323.85 3216.06 3462.64 3197.99 3119.1 3318.8 3206.15 3231.33 3543.8 
3638.46 2979.17 2864.9 3154.62 3379.98 3462.12 3371.91 2977.72 3110.05 
3507.15 3505.65 2733.32 3263.68 3248.05 3078.74 3202.91 3372.75 2892.35 
3361.98 2869.67 3041.23 3226.75 3214.26 3165.62 2850.7 3050.17 3400.3 
3414.16 3349.23 3001.47 2904.56 3421.32 3208.26 3453.38 2929.98 3113.99 
2722.3 2615.83 2866.84 3000.16 3181.26 3386.89 2787.75 3002.88 2991.15 
2916.12 2891.11 2805.28 2741.99 2820.59 2825.25 2879.06 3245.02 3301.98 
3308.8 3322.67 3284.02 3222.21 3140.98 2902.59 2846.04 3029.63 3070.28 
3090.99 3270.3 3383.75 3168.57 3242.15 3288.43 3198.43 3160.42 3089.33 
3421.32 3437.99 3400.48 3399.75 3394.17 3421.43 3383.3 3348.47 3373.67 
3340.49 3345.09 3362.48 3379.96 3160.11 3079.05 3045.79 3038.63 3022.51 
3226.01 3392.23 3247.65 3134.85 3134.85 3120.57 3135.06 3079.9 3232.01 
3208.84 3400.25 3486.83 3515.52 3045.22 2982.86 3151 3151 3278.36 
3268.44 3338.77 3340.42 3505.11 3582.96 3574.81 3647.21 3599.56 3328.9 
3295.54 3301.31 3314.53 3311.38 3247.42 3290.27 3256.4 3343.2 3411.96 
3107.67 3022.4 2946.94 2973.4 2979.81 2998.52 3042.01 3177.77 2907.43 
3632.26 3447.51 3630.44 3439.79 3425.99 3414.53 3395.86 3391.64 3291.2 
3178.73 3195.9 3095.69 3096.79 3160.78 3220.1 3410.27 3311.98 3305.9 
3317.89 3008.2 2996.65 3014.01 3021.25 2999.2 3005.46 2959.98 2959.98 
2934.74 2926.84 3052.23 3081.83 3133.06 3238.21 3225.75 3284.86 3037.67 
2975.23 2974.89 2992.52 3040.96 3075.56 3175.35 3219.47 3204.23 3229.81 
3176.88 3240.89 3270.93 3292.58 3333.59 3085.86 2935.48 2924.96 2941.4 
2935.79 2952.56 2945.22 2931.99 3116.68 3131.42 3177.06 2751.17 2862.93 
2963 2954.16 3027.84 3023.38 3066.79 3091.28 3189.64 3260.79 3241.72 
3200.27 3516.59 3485.21 3575.02 3275.05 3160.15 3108.81 3399.64 3407.68 
3374.51 3222.1 3268.27 3331.46 3285.52 3225.21 3163.77 3132.64 3100.7 
3133.01 3136.74 3330.57 3298.84 3230.06 3135.59 3184.49 3171.47 3061.06 
2905.32 2996.78 3047.67 3064.2 3052.28 3176.48 3176.48 3277.75 3330.91 
3419.75 3419.75 3540.89 3663.74 3079.43 3008.63 3015.9 3054.47 3551.72 
3491.3 3319.88 3272.65 3295.98 3160.6 3147.01 3133.01 3142.67 3603.31 
3495.53 3453.99 3415.99 3384 3471.75 3543.93 3417.56 3372.72 3239 
3249.33 3319.84 3322.23 3198.31 3186.47 3189.19 3259.31 3186.65 3180.64 
3180.64 3204.32 3223.33 3157.3 3261.68 3338.06 3309.23 3220.02 3220.02 
3168.14 3062.4 3029.93 3052.06 3281.27 3293.86 3242.6 3228.21 3179.42 
3047.27 3054.06 2997.69 3051.75 3282.74 3299.3 3198.19 3188.47 3139.91 
3107.35 3237.84 3328.59 3277.77 3254.26 3122.53 3070.35 3030.19 3090.94 
3048.7 3122.14 3161.11 3191.85 3219.63 3141.69 3014.41 2960.63 2978.23 
3165.06 3119.49 3021.69 3012.15 3012.99 3067.95 3060.73 3060.73 3067.83 
3138.15 3138.15 3088.46 3088.46 3051.84 3020.94 3018.33 3069.56 
vox_ch2 1 359 double
2675.68 2695.07 2695.01 2649.88 2673.43 2757.1 2667.02 2799 2573.63 
2691.74 2705.23 2976.09 2632.49 2783.16 2804.26 2878.88 2769.1 3024.81 
3337.98 2588.48 2571.9 2801.96 2816.9 2991.93 2886.17 2623.57 2739.88 
3283.35 3063.54 2536.42 2911.65 2868.6 2656.74 2859.74 2797.07 2683.52 
2847.64 2555.9 2705.94 2734.6 2833.69 2787.42 2618.16 2722.35 2978.1 
3105.2 2905.12 2719.91 2716.4 2986.41 2782.32 3030.33 2753.09 2857.8 
2492.75 2450.43 2522.99 2620.67 2748.51 2873.75 2586.86 2693.6 2662.19 
2638.58 2529.72 2591.9 2551.51 2606.91 2655.06 2695.14 2916.65 2945.98 
2992.74 2985.77 2927.6 2832.88 2848.6 2630.2 2701.93 2715.06 2670.42 
2666.38 3054.53 3011.11 2779.19 2784.78 2795.57 2810.8 2698.93 2748.07 
2986.41 2963.44 2879.72 2867.49 2840.67 2853.32 2909.58 3047.79 3044.37 
3051.26 3028.43 2957.26 2921.38 2707 2629.89 2611.37 2614.68 2607.15 
2775.46 3260.33 3124.67 3022.79 3022.79 2989.59 2995.44 2989.6 2990.36 
2985.4 3066.84 3097.05 3078.37 2771.04 2793.14 2882.52 2882.52 3025.54 
3100.35 3191.11 3251.22 3107.02 3017.31 3042.38 3051.93 3000.43 3045.3 
2857.73 2774.7 2748.94 2799.41 2829.51 2791.37 2886 2942.2 2985.28 
2840.64 2801.74 2748.77 2768.4 2747.15 2772.49 2785.02 2839.43 2640.01 
3302.31 2925.89 3009.64 3061.02 2879.49 2968.28 2912.73 2954.8 2794.4 
2758.31 2748.9 2746.06 2788.99 2801.27 2859.68 2855.19 2798.37 2785.98 
2789.75 2616.12 2599.8 2633.12 2581.22 2632.43 2606.59 2611.26 2611.26 
2645.93 2689.56 2732.54 2800.37 2819.09 2812.77 2764.9 2872.09 2723.89 
2716.02 2764.77 2714.86 2712.58 2759.22 2794.06 2718.36 2841.85 2819.27 
2805.7 2685.28 2707.58 2733.52 2740.36 2652.44 2622.12 2574.17 2580.98 
2571.2 2577.69 2592.48 2674.59 2711.9 2706.53 2683.41 2512.96 2556.58 
2640.75 2646.75 2748.54 2782.3 2820.62 2888.17 2970.22 2925.19 2736.88 
2708.52 3127.1 3208 3156.72 2784.4 2753.09 2708.6 2803.51 2803.68 
2859.86 2845.88 2861.9 2846.12 2868.51 2842.51 2759.59 2728.22 2650.38 
2661.72 2639.06 2896 2864.62 2837.1 2820.05 2824.25 2821.79 2719.86 
2618.38 2708.72 2690.7 2730.44 2798.86 2831.94 2831.94 2896.63 3006.49 
3030.6 3030.6 3262.26 3358.47 2706.44 2718.42 2688.83 2667.1 3063.51 
3059.74 2847.78 2803.3 2746.57 2778.9 2820.05 2786.51 2777.79 3323.46 
3193.01 3065.85 2965.73 2945.14 2938.62 2946.62 3063.05 3027.52 2909.85 
2874.63 2844.04 2885.37 2811.21 2829.72 2787.59 2783.72 2796.46 2824.49 
2824.49 2854.85 2843.9 2786.42 2850.38 2812.32 2843.9 2873.91 2873.91 
2854.31 2784.22 2767.7 2793.56 2855.93 2853.98 2759.17 2734.31 2700.4 
2669.99 2629.65 2633.06 2659.19 2676.04 2695.59 2638.95 2647.56 2638.57 
2636.73 2869.16 2728.73 2695.14 2681.6 2727.4 2677.88 2645.25 2635.12 
2664.06 2727 2749.3 2756.95 2777.16 2707.01 2615.6 2601.09 2619.77 
2743.23 2649.88 2617.62 2595.58 2599.54 2645.01 2685.85 2685.85 2714.35 
2758.78 2758.78 2755.22 2755.22 2692.64 2674.95 2648.84 2659 
background_sub_ch2 1 359 double
379.808 399.203 399.141 354.006 377.561 461.228 371.154 503.129 277.759 
395.87 409.364 680.215 336.623 487.289 508.388 583.006 473.228 728.944 
1042.1 292.61 276.03 506.092 521.03 696.055 590.302 327.697 444.006 
987.475 767.672 240.549 615.783 572.734 360.87 563.87 501.203 387.648 
551.771 260.03 410.067 438.734 537.82 491.549 322.289 426.475 682.228 
809.327 609.252 424.043 420.524 690.536 486.45 734.462 457.215 561.931 
196.882 154.561 227.117 324.796 452.635 577.882 290.993 397.734 366.314 
342.709 233.845 296.03 255.635 311.043 359.191 399.265 620.783 650.104 
696.87 689.894 631.734 537.006 552.734 334.327 406.055 419.191 374.549 
370.512 758.66 715.24 483.314 488.907 499.697 514.931 403.055 452.203 
690.536 667.573 583.845 571.623 544.796 557.45 613.709 751.919 748.499 
755.388 732.561 661.388 625.512 411.129 334.018 315.499 318.808 311.277 
479.586 964.462 828.796 726.919 726.919 693.722 699.573 693.734 694.487 
689.524 770.969 801.178 782.499 475.166 497.265 586.648 586.648 729.672 
804.475 895.24 955.351 811.154 721.438 746.512 756.055 704.561 749.425 
561.857 478.833 453.067 503.536 533.635 495.499 590.129 646.327 689.413 
544.771 505.87 452.894 472.524 451.277 476.623 489.154 543.561 344.141 
1006.44 630.018 713.771 765.154 583.623 672.413 616.857 658.931 498.524 
462.438 453.03 450.191 493.117 505.401 563.808 559.314 502.499 490.104 
493.882 320.252 303.931 337.252 285.351 336.561 310.722 315.388 315.388 
350.055 393.685 436.672 504.499 523.215 516.894 469.03 576.215 428.018 
420.154 468.894 418.993 416.709 463.351 498.191 422.487 545.981 523.401 
509.833 389.413 411.709 437.648 444.487 356.573 326.252 278.302 285.104 
275.327 281.82 296.61 378.722 416.03 410.66 387.536 217.092 260.709 
344.882 350.882 452.672 486.425 524.746 592.302 674.351 629.314 441.006 
412.648 831.228 912.129 860.845 488.524 457.215 412.734 507.635 507.808 
563.993 550.006 566.03 550.252 572.635 546.635 463.722 432.351 354.512 
365.845 343.191 600.129 568.746 541.228 524.178 528.376 525.919 423.993 
322.512 412.845 394.833 434.573 502.993 536.067 536.067 600.759 710.623 
734.734 734.734 966.388 1062.6 410.573 422.549 392.956 371.228 767.635 
763.87 551.907 507.425 450.697 483.03 524.178 490.635 481.919 1027.59 
897.141 769.981 669.857 649.265 642.746 650.746 767.178 731.648 613.981 
578.759 548.166 589.499 515.339 533.845 491.722 487.845 500.586 528.623 
528.623 558.981 548.03 490.549 554.512 516.45 548.03 578.043 578.043 
558.438 488.351 471.833 497.685 560.055 558.104 463.302 438.438 404.524 
374.117 333.783 337.191 363.314 380.166 399.722 343.08 351.685 342.697 
340.857 573.289 432.857 399.265 385.734 431.524 382.006 349.376 339.252 
368.191 431.129 453.425 461.08 481.289 411.141 319.734 305.215 323.894 
447.364 354.006 321.746 299.709 303.672 349.141 389.981 389.981 418.475 
462.907 462.907 459.351 459.351 396.771 379.08 352.969 363.129 
background_sub_ch1 1 359 double
751.522 689.003 742.336 801.139 802.583 863.114 774.855 864.633 798.435 
1005.5 897.707 1144.29 879.633 800.744 1000.45 887.793 912.978 1225.45 
1320.1 660.818 546.546 836.262 1061.62 1143.77 1053.56 659.361 791.694 
1188.79 1187.3 414.966 945.324 929.694 760.386 884.559 1054.4 573.991 
1043.62 551.312 722.88 908.398 895.904 847.262 532.349 731.818 1081.94 
1095.81 1030.88 683.114 586.201 1102.97 889.904 1135.03 611.62 795.633 
403.941 297.472 548.485 681.805 862.904 1068.53 469.398 684.522 672.793 
597.768 572.756 486.929 423.633 502.238 506.892 560.707 926.67 983.62 
990.447 1004.31 965.67 903.855 822.62 584.238 527.682 711.275 751.929 
772.633 951.941 1065.4 850.213 923.793 970.077 880.077 842.065 770.978 
1102.97 1119.63 1082.13 1081.4 1075.82 1103.08 1064.94 1030.11 1055.31 
1022.14 1026.73 1044.13 1061.61 841.756 760.694 727.435 720.275 704.151 
907.657 1073.88 929.299 816.497 816.497 802.213 816.707 761.546 913.657 
890.485 1081.89 1168.47 1197.16 726.867 664.509 832.645 832.645 960.003 
950.089 1020.41 1022.06 1186.76 1264.61 1256.46 1328.85 1281.2 1010.55 
977.188 982.954 996.176 993.028 929.065 971.917 938.04 1024.84 1093.61 
789.312 704.04 628.583 655.04 661.46 680.164 723.657 859.41 589.077 
1313.9 1129.15 1312.09 1121.44 1107.63 1096.18 1077.51 1073.29 972.843 
860.373 877.546 777.336 778.435 842.423 901.744 1091.92 993.62 987.546 
999.534 689.843 678.299 695.657 702.892 680.843 687.102 641.62 641.62 
616.386 608.485 733.88 763.472 814.707 919.855 907.398 966.509 719.312 
656.88 656.534 674.164 722.608 757.201 856.991 901.114 885.88 911.46 
858.522 922.534 952.571 974.225 1015.24 767.509 617.126 606.608 623.04 
617.435 634.201 626.867 613.633 798.324 813.065 858.707 432.818 544.571 
644.645 635.805 709.485 705.028 748.435 772.929 871.287 942.435 923.361 
881.917 1198.24 1166.85 1256.67 956.694 841.793 790.46 1081.29 1089.32 
1056.15 903.744 949.917 1013.1 967.164 906.855 845.41 814.287 782.349 
814.657 818.386 1012.21 980.485 911.707 817.238 866.139 853.114 742.707 
586.966 678.423 729.312 745.843 733.929 858.126 858.126 959.398 1012.56 
1101.4 1101.4 1222.53 1345.39 761.077 690.275 697.546 736.114 1233.36 
1172.94 1001.52 954.299 977.62 842.25 828.657 814.657 824.312 1284.95 
1177.18 1135.63 1097.63 1065.65 1153.4 1225.57 1099.2 1054.36 920.645 
930.978 1001.48 1003.88 879.954 868.114 870.83 940.954 868.299 862.287 
862.287 885.966 904.978 838.941 943.324 1019.71 990.88 901.67 901.67 
849.781 744.04 711.571 733.707 962.917 975.509 924.25 909.855 861.065 
728.917 735.707 679.336 733.398 964.386 980.941 879.83 870.114 821.559 
788.991 919.485 1010.24 959.41 935.904 804.176 751.991 711.83 772.583 
730.349 803.781 842.756 873.497 901.275 823.336 696.052 642.275 659.88 
846.707 801.139 703.336 693.793 694.633 749.596 742.373 742.373 749.472 
819.793 819.793 770.102 770.102 733.485 702.583 699.978 751.201 
width_equivalent 1 359 double
2.45733 2.58282 2.58242 2.29039 2.4428 2.98411 2.40134 3.25521 1.79708 
2.56125 2.64855 4.40095 2.17793 3.15273 3.28924 3.77201 3.06175 4.71622 
6.74235 1.89317 1.7859 3.27438 3.37103 4.50343 3.81921 2.12018 2.87269 
6.3889 4.96679 1.55633 3.98408 3.70555 2.3348 3.6482 3.24275 2.50805 
3.56992 1.68238 2.65311 2.83858 3.47966 3.18029 2.08519 2.75926 4.41397 
5.23629 3.94182 2.74353 2.72076 4.46772 3.1473 4.75192 2.95815 3.63566 
1.27381 1 1.46943 2.10141 2.92852 3.73886 1.88271 2.57331 2.37003 
2.21731 1.51296 1.9153 1.65394 2.01242 2.32394 2.58322 4.01643 4.20613 
4.5087 4.46357 4.08728 3.47439 3.57615 2.16307 2.62715 2.71214 2.42331 
2.39719 4.90848 4.62756 3.12701 3.16319 3.23301 3.33157 2.60774 2.92572 
4.46772 4.31916 3.77744 3.69836 3.52479 3.60666 3.97066 4.86487 4.84274 
4.88731 4.73962 4.27914 4.04702 2.65998 2.16107 2.04126 2.06267 2.01394 
3.10289 6.24001 5.36225 4.70312 4.70312 4.48833 4.52619 4.48841 4.49328 
4.46117 4.98811 5.18357 5.06272 3.07429 3.21727 3.79557 3.79557 4.72093 
5.2049 5.79214 6.18106 5.24811 4.66765 4.82988 4.89162 4.55846 4.84873 
3.63518 3.09802 2.93132 3.25785 3.45258 3.20585 3.8181 4.18169 4.46046 
3.52463 3.27294 2.9302 3.0572 2.91973 3.08372 3.16479 3.5168 2.22657 
6.51158 4.07617 4.61805 4.95049 3.776 4.35047 3.99103 4.26324 3.22542 
2.99194 2.93108 2.9127 3.19043 3.26991 3.6478 3.61873 3.25114 3.17094 
3.19538 2.07201 1.96642 2.182 1.8462 2.17753 2.01035 2.04054 2.04054 
2.26483 2.54711 2.82524 3.26408 3.38517 3.34427 3.03459 3.72808 2.76925 
2.71837 3.03372 2.71086 2.69608 2.99785 3.22326 2.73346 3.53246 3.38637 
3.29858 2.51948 2.66373 2.83155 2.8758 2.30701 2.11083 1.80059 1.84461 
1.78134 1.82336 1.91905 2.4503 2.69169 2.65694 2.50733 1.40457 1.68677 
2.23136 2.27018 2.92876 3.14714 3.39507 3.83215 4.36301 4.07162 2.85328 
2.6698 5.37799 5.90141 5.56961 3.16072 2.95815 2.67036 3.28437 3.28548 
3.649 3.5585 3.66218 3.5601 3.70491 3.53669 3.00025 2.79728 2.29367 
2.36699 2.22042 3.88279 3.67975 3.50171 3.3914 3.41856 3.40266 2.74321 
2.08663 2.67108 2.55454 2.81166 3.25433 3.46832 3.46832 3.88687 4.59768 
4.75368 4.75368 6.25247 6.87494 2.65638 2.73386 2.5424 2.40182 4.96655 
4.94219 3.5708 3.28301 2.91598 3.12517 3.3914 3.17438 3.11798 6.64841 
5.80444 4.98172 4.33393 4.2007 4.15853 4.21029 4.96359 4.73371 3.97242 
3.74453 3.5466 3.81402 3.33421 3.45394 3.18141 3.15632 3.23876 3.42015 
3.42015 3.61657 3.54572 3.17382 3.58765 3.3414 3.54572 3.7399 3.7399 
3.61305 3.1596 3.05273 3.21999 3.62352 3.6109 2.99753 2.83666 2.61724 
2.42051 2.15956 2.1816 2.35062 2.45965 2.58617 2.2197 2.27538 2.21723 
2.20532 3.70914 2.80056 2.58322 2.49567 2.79193 2.47155 2.26044 2.19494 
2.38217 2.78938 2.93363 2.98315 3.11391 2.66006 2.06866 1.97472 2.09558 
2.89441 2.29039 2.08168 1.9391 1.96474 2.25892 2.52315 2.52315 2.7075 
2.99498 2.99498 2.97197 2.97197 2.56708 2.45262 2.28368 2.34942 
norm_scaled 1 359 double
0.503596 0.363552 0.437739 0.661171 0.585058 0.444115 0.563995 0.359432 1 
0.814601 0.622309 0.339336 0.855129 0.317736 0.497608 0.250982 0.476207 0.338718 
0.109121 0.658558 0.504336 0.322796 0.536206 0.317711 0.396152 0.522113 0.395206 
0.0742717 0.264189 0.363073 0.257836 0.306652 0.574745 0.276438 0.572884 0.227663 
0.455231 0.581998 0.38399 0.554468 0.330229 0.362285 0.322452 0.358025 0.28595 
0.157442 0.344765 0.299837 0.179608 0.292247 0.420867 0.263504 0.14843 0.19175 
0.544047 0.47364 0.745351 0.570362 0.463542 0.431765 0.301019 0.360841 0.424896 
0.373691 0.76436 0.318624 0.325447 0.301906 0.189155 0.185355 0.234334 0.24557 
0.194737 0.213835 0.254204 0.339833 0.231859 0.375498 0.127278 0.347392 0.519594 
0.562676 0.102472 0.232575 0.38194 0.454181 0.482897 0.354226 0.564834 0.351912 
0.292247 0.336524 0.434201 0.455454 0.501396 0.503653 0.36871 0.166312 0.188433 
0.156976 0.183813 0.281957 0.347615 0.541684 0.669115 0.684772 0.659068 0.660654 
0.455887 0.0241684 0.0284991 0.0295877 0.0295877 0.0479621 0.0540822 0.0154695 0.136172 
0.122797 0.184769 0.215329 0.254936 0.254819 0.147666 0.193655 0.193655 0.136215 
0.0616017 0.0387792 0 0.21788 0.378487 0.339816 0.381101 0.414802 0.15437 
0.370902 0.544668 0.625525 0.49995 0.3719 0.494066 0.287976 0.28581 0.286168 
0.210034 0.17837 0.176255 0.175331 0.219378 0.197933 0.226945 0.283279 0.355675 
0.130584 0.400292 0.42578 0.219314 0.458808 0.310506 0.375092 0.30974 0.488501 
0.438118 0.480529 0.36396 0.281909 0.330802 0.293423 0.488942 0.502858 0.523701 
0.52861 0.600769 0.643818 0.550158 0.772092 0.528115 0.632492 0.534456 0.534456 
0.382879 0.263631 0.338436 0.24574 0.270003 0.393271 0.479181 0.33662 0.338406 
0.273501 0.183042 0.298757 0.36806 0.312706 0.360372 0.589034 0.306259 0.372126 
0.34027 0.719888 0.689225 0.640659 0.672805 0.599882 0.455319 0.614963 0.618083 
0.649805 0.654136 0.57826 0.304999 0.470472 0.504267 0.634985 0.511918 0.564612 
0.442915 0.411246 0.275661 0.210322 0.197508 0.130283 0.123124 0.237003 0.567359 
0.591436 0.205956 0.116047 0.216086 0.492319 0.427376 0.468406 0.587464 0.595832 
0.44483 0.317677 0.337101 0.427391 0.343064 0.326444 0.417385 0.450793 0.630012 
0.641065 0.728533 0.341783 0.362441 0.340596 0.271094 0.315513 0.306033 0.37782 
0.415658 0.317751 0.430706 0.358187 0.215706 0.294199 0.294199 0.292091 0.196737 
0.237826 0.237826 0.108173 0.108768 0.434337 0.312382 0.390802 0.50594 0.297479 
0.25804 0.412707 0.449284 0.60912 0.373378 0.283165 0.327241 0.354981 0.100085 
0.134263 0.224439 0.315157 0.316656 0.401529 0.450759 0.201111 0.205707 0.238061 
0.298519 0.419531 0.350802 0.353345 0.308257 0.388507 0.475951 0.368329 0.311051 
0.311051 0.285436 0.322207 0.354833 0.349829 0.50125 0.409059 0.271528 0.271528 
0.250386 0.251419 0.242844 0.224082 0.359884 0.375715 0.51259 0.557085 0.586655 
0.486795 0.628521 0.523547 0.52573 0.812817 0.767 0.828198 0.778121 0.735567 
0.689793 0.295913 0.700408 0.738675 0.751614 0.43981 0.497969 0.536147 0.669063 
0.506326 0.440249 0.43708 0.456925 0.444827 0.516825 0.613466 0.573215 0.536089 
0.455928 0.661171 0.618466 0.689884 0.674676 0.59684 0.461998 0.461998 0.399577 
0.388499 0.388499 0.336154 0.336154 0.431534 0.43417 0.506051 0.553465 
norm_unscaled 1 359 double
305.828 266.764 287.458 349.782 328.551 289.236 322.676 265.615 444.296 
392.58 338.942 260.009 403.885 253.984 304.158 235.364 298.188 259.837 
195.793 349.054 306.035 255.396 314.925 253.977 275.857 310.993 275.594 
186.072 239.048 266.63 237.276 250.892 325.674 242.464 325.155 228.859 
292.337 327.698 272.465 320.019 257.469 266.411 255.3 265.222 245.118 
209.271 261.524 248.991 215.455 246.874 282.752 238.857 206.757 218.841 
317.112 297.472 373.264 324.452 294.655 285.791 249.321 266.008 283.876 
269.592 378.566 254.232 256.135 249.568 218.117 217.058 230.72 233.854 
219.675 225.002 236.262 260.148 230.029 270.096 200.857 262.256 310.291 
322.308 193.938 230.229 271.893 292.044 300.054 264.163 322.91 263.517 
246.874 259.225 286.471 292.399 305.215 305.844 268.203 211.746 217.916 
209.141 216.627 244.004 262.318 316.452 351.998 356.366 349.196 349.638 
292.52 172.096 173.304 173.608 173.608 178.733 180.44 169.669 203.338 
199.608 216.894 225.418 236.467 236.434 206.544 219.373 219.373 203.35 
182.538 176.171 165.354 226.13 270.93 260.143 271.659 281.06 208.415 
268.814 317.285 339.839 304.811 269.093 303.17 245.683 245.079 245.179 
223.942 215.109 214.519 214.261 226.548 220.566 228.659 244.373 264.567 
201.78 277.013 284.122 226.53 293.335 251.967 269.983 251.754 301.618 
287.564 299.394 266.878 243.991 257.629 247.202 301.741 305.622 311.436 
312.806 332.934 344.942 318.816 380.723 312.668 341.783 314.436 314.436 
272.155 238.892 259.758 233.901 240.669 275.054 299.018 259.252 259.75 
241.645 216.412 248.69 268.022 252.581 265.877 329.66 250.783 269.156 
260.27 366.161 357.608 344.061 353.028 332.686 292.362 336.893 337.763 
346.612 347.82 326.655 250.431 296.589 306.015 342.478 308.15 322.848 
288.902 280.068 242.247 224.022 220.447 201.696 199.699 231.464 323.614 
330.33 222.804 197.725 225.63 302.683 284.567 296.012 329.222 331.557 
289.436 253.968 259.386 284.571 261.049 256.413 281.78 291.099 341.091 
344.174 368.572 260.692 266.454 260.361 240.974 253.364 250.72 270.744 
281.299 253.988 285.496 265.268 225.524 247.419 247.419 246.831 220.232 
231.694 231.694 195.528 195.694 286.509 252.491 274.365 306.482 248.334 
237.332 280.475 290.678 335.263 269.505 244.341 256.635 264.373 193.272 
202.806 227.96 253.265 253.683 277.357 291.09 221.453 222.735 231.76 
248.624 282.379 263.208 263.917 251.34 273.725 298.117 268.096 252.119 
252.119 244.974 255.231 264.332 262.936 305.174 279.458 241.095 241.095 
235.197 235.486 233.094 227.86 265.741 270.157 308.337 320.748 328.997 
301.142 340.675 311.393 312.002 392.083 379.302 396.373 382.405 370.534 
357.766 247.897 360.727 371.401 375.011 288.036 304.259 314.908 351.984 